# vtk DataFile Version 4.0
vtk output
ASCII
DATASET POLYDATA
POINTS 5788 float
32 8 -20.5563 32 7.12635 -20 33.7715 8 -20 
30 8 -20.1473 30 7.84004 -20 29.6452 8 -20 
32 10 -20.7059 33.1285 10 -20 30 10 -20.9141 
28 8.87148 -20 28 10 -20.7059 26.1739 10 -20 
32 12 -20.5997 32.8267 12 -20 30 12 -21 
28 12 -21 26 10.3331 -20 26 12 -20.3984 
25.6016 12 -20 32 14 -20.1421 32.1971 14 -20 
30 14 -20.5563 28 14 -20.4516 26.7797 14 -20 
26 13.1434 -20 32 14.1971 -20 30 14.7091 -20 
28 14.4869 -20 34 6 -18.5677 34 5.7412 -18 
34.2684 6 -18 32 6 -18.6207 32 5.66056 -18 
31.4622 6 -18 34 8 -19.872 35 8 -18 
30 6.88254 -18 28 8 -18.7135 28 7.66056 -18 
27.2179 8 -18 34 10 -19.2407 35.1157 10 -18 
26 10 -19.8335 26 8.77769 -18 25.2471 10 -18 
34 12 -19 35.1733 12 -18 25 12 -18 
34 14 -18.6235 34.8166 14 -18 26 14 -19.3481 
25.4259 14 -18 34 15.0633 -18 32 16 -18.6235 
33.0633 16 -18 30 16 -18.6785 28.668 16 -18 
28 15.7165 -18 26 14.7091 -18 32 16.6785 -18 
30 16.6235 -18 34 5.60162 -16 34.3984 6 -16 
32 5.44365 -16 31.2617 6 -16 -14 6 -16.3984 
-14 5.60162 -16 -12.3331 6 -16 -15.6669 6 -16 
35.4259 8 -16 30 7.14003 -16 28 8 -17 
28.6207 8 -16 16 8 -16.205 16 7.68765 -16 
16.3738 8 -16 14 8 -16.5997 14 7.17329 -16 
12 8 -16.205 12 7.68765 -16 11.6016 8 -16 
-12 8 -16.205 -12 6.55364 -16 -11.6016 8 -16 
-14 8 -16.5997 -16 6.55364 -16 -16 8 -16.205 
-16.3123 8 -16 36 10 -17.0395 36 8.81107 -16 
37.8383 10 -16 28 8.33944 -16 26 9.29089 -16 
25.4259 10 -16 16 10 -16.205 16.3738 10 -16 
14 10 -16.5997 12 10 -16.205 11.6016 10 -16 
-12 8.31235 -16 -14 8.82671 -16 -16 8.31235 -16 
38 12 -16.5997 38 10.208 -16 38.8267 12 -16 
36 12 -17.4003 25 12 -16 16 10.3123 -16 
14 10.8267 -16 12 10.3123 -16 38 14 -16.5563 
38.7091 14 -16 36 14 -17.2941 25.116 14 -16 
38 15.9654 -16 37.9762 16 -16 36 16 -16.791 
34 16 -17.502 28 16 -17.5695 26.1403 16 -16 
26 15.8645 -16 36 17.1671 -16 34.3548 18 -16 
34 18 -16.16 32 18 -16.7091 30 18 -16.1971 
29.7668 18 -16 28 17 -16 34 18.1473 -16 
32 18.5564 -16 30 18.1421 -16 34 6 -14.8566 
32 6 -14.5425 18 6 -14.4208 18 5.44944 -14 
18.913 6 -14 16 6 -14.8921 16 5.03659 -14 
14 6 -15 14 5 -14 12 6 -14.8921 
12 5.03659 -14 10 6 -14.6841 10 5.12663 -14 
8 6 -14.205 8 5.68765 -14 7.68765 6 -14 
-10 6 -14.8921 -10 5 -14 -8.02376 6 -14 
-12 6 -15.8911 -12 4.70615 -14 -14 4.59972 -14 
-16 6 -15.8911 -16 4.70615 -14 -18 6 -14.4825 
-18 5.4239 -14 -18.6759 6 -14 34 6.49607 -14 
35.1376 8 -14 32 6.37786 -14 30 8 -14.7795 
30.6801 8 -14 20 8 -14.3394 20 7.17329 -14 
20.5997 8 -14 18 8 -15.209 10 8 -15.2942 
8 8 -14.5997 7.17329 8 -14 -8 8 -14.3984 
-8 6.05316 -14 -7.60162 8 -14 -10 8 -15.2942 
-18 8 -14.8921 -19.0905 8 -14 38 10 -15.7465 
38 9.4898 -14 38.8733 10 -14 36 8.66316 -14 
30 8.68014 -14 28 9.51308 -14 26 10 -14.2285 
26.2912 10 -14 20 10 -14.3394 20.5671 10 -14 
18 10 -15.209 10 10 -15.2942 8 10 -14.5997 
7.17329 10 -14 -8 9.66692 -14 -8.19083 10 -14 
-10 10 -14.6841 -12 10 -14.8921 -14 10 -15 
-16 10 -14.8921 -18 10 -14.2842 -18.4156 10 -14 
40 12 -14.352 40 11.5458 -14 40.2214 12 -14 
26 10.2912 -14 25.4504 12 -14 20 10.66 -14 
18.66 12 -14 18 12 -14.3654 16 12 -14.8533 
14 12 -14.8734 12 12 -14.7091 10 12 -14.4869 
8.29121 12 -14 8 11.792 -14 -10 10.9565 -14 
-12 11 -14 -14 11.0366 -14 -16 11.0905 -14 
-18 10.4684 -14 40 14 -14.5506 40.4825 14 -14 
25.5329 14 -14 18 12.4389 -14 16 12.8533 -14 
14 12.6842 -14 12 12.5564 -14 10 12.4516 -14 
40 15.3448 -14 38 16 -15.9859 39.7611 16 -14 
26.1089 16 -14 26 15.7088 -14 38 18 -14.1879 
38.2072 18 -14 36 18 -15.1285 28.6759 18 -14 
28 17.5283 -14 38 18.1473 -14 36 18.7058 -14 
34 18.9141 -14 32 19 -14 30 18.7058 -14 
32 -14 -12.0774 32 -14.0998 -12 32.2245 -14 -12 
31.8232 -14 -12 -30 -14 -12.4141 -30 -14.6344 -12 
-29.2465 -14 -12 -32 -14 -12.8225 -32 -15.5951 -12 
-34 -14 -12.0774 -34 -14.13 -12 -34.0774 -14 -12 
32 -12 -12.7852 33.1314 -12 -12 30 -13.027 -12 
30 -12 -12.7138 28.028 -12 -12 -28 -12 -12.3394 
-28 -12.66 -12 -27.4329 -12 -12 -30 -12 -12.8225 
-32 -12 -12.7058 -33.8261 -12 -12 -34 -13.0606 -12 
32 -10 -12.6557 32.4577 -10 -12 30 -10 -13.1161 
28 -11.9688 -12 28 -10 -12.5997 27.0477 -10 -12 
-28 -10 -12.5997 -27 -10 -12 -30 -10 -12.7058 
-31.5027 -10 -12 -32 -10.4973 -12 32 -8.78496 -12 
31.5409 -8 -12 30 -8 -12.824 28 -8 -12.5563 
27.0527 -8 -12 -28 -8 -12.205 -27.6016 -8 -12 
-30 -8 -12.205 -30.3293 -8 -12 30 -6.54815 -12 
28 -6.54247 -12 -28 -7.6517 -12 -30 -7.62622 -12 
-26 2 -12.3984 -26 1.23193 -12 -25.0344 2 -12 
-28 2 -12.1473 -28 1.55665 -12 -28.2667 2 -12 
24 4 -12.1421 24 3.7668 -12 24.2332 4 -12 
22 4 -12.5997 22 3 -12 20 4 -12.6841 
20 2.95229 -12 18 4 -12.8533 18 3 -12 
16 4 -12.8734 16 3.21331 -12 14 4 -12.8267 
14 3.33684 -12 12 4 -12.8267 12 3.38171 -12 
10 4 -12.8267 10 3.40028 -12 8 4 -12.7091 
8 3.44365 -12 6.41374 4 -12 -8 4 -12.563 
-8 3.54841 -12 -7.0883 4 -12 -10 4 -12.9095 
-10 3.29385 -12 -12 4 -13.0905 -12 3 -12 
-14 4 -13.1733 -14 2.82671 -12 -16 4 -13.1266 
-16 2.82671 -12 -18 4 -12.9234 -18 2.86243 -12 
-20 4 -12.6841 -20 2.95229 -12 -22 4 -12.5997 
-22 3.04771 -12 -24 4 -12.5997 -24 2.76711 -12 
-26 4 -12.3394 -26.8267 4 -12 -28 2.43012 -12 
24 6 -12.5997 25 6 -12 22 6 -13.0859 
20 6 -13.5362 6 6 -12.8533 6 4.32294 -12 
5.07596 6 -12 -8 6 -13.9859 -6.43558 6 -12 
-20 6 -13.2942 -22 6 -13 -24 6 -12.7058 
-25.4003 6 -12 -26 5 -12 34 8 -12.9605 
32 8 -13.0337 24 8 -12.7061 25.1696 8 -12 
22 8 -13.2942 6 8 -13 4.96341 8 -12 
-6.59972 8 -12 -20 8 -13.3159 -22 8 -12.7058 
-24 8 -12.205 -24.3738 8 -12 38 10 -13.0252 
37.0338 10 -12 36 9.38277 -12 34 9 -12 
32 9.7668 -12 30 10 -13 31.7526 10 -12 
28 10 -13.4272 24 10 -12.7071 25.2341 10 -12 
22 10 -13.209 6 10 -12.9634 5.10789 10 -12 
-8 10 -13.8911 -6.70615 10 -12 -20 10 -13 
-21.6707 10 -12 -22 9.60162 -12 -24 8.39838 -12 
40 12 -13.2652 39.4783 12 -12 38 10.725 -12 
30 12 -12.2835 30.4305 12 -12 28 12 -12.812 
26 12 -13.1898 24 11.332 -12 23.1919 12 -12 
22 12 -12.4208 20 12 -13.2474 8 12 -13.8911 
6 12 -12.2683 5.77016 12 -12 -8 12 -12.6235 
-7.29292 12 -12 -10 12 -13.225 -12 12 -13.1079 
-14 12 -13.1079 -16 12 -13.3159 -18 12 -13.209 
-20 12 -12.4208 -20.6759 12 -12 40 12.4283 -12 
41.9836 14 -12 30 12.4961 -12 28 14 -12.361 
28.5942 14 -12 26 14 -13.3692 22 12.6759 -12 
20 13.6127 -12 18 14 -12.6235 19.332 14 -12 
16 14 -12.7298 14.1969 14 -12 14 13.9226 -12 
12 13.6016 -12 10 13.6016 -12 8 13.495 -12 
6 12.3293 -12 -8 12.8849 -12 -10 13.9425 -12 
-12 13.5167 -12 -14 13.5167 -12 -15 14 -12 
-16 14 -12.3394 -18 14 -12.3394 -18.7659 14 -12 
-20 12.8504 -12 42 16 -12.3654 42 14.059 -12 
42.4389 16 -12 40 16 -13.7702 28 14.8436 -12 
27.3498 16 -12 18 14.8166 -12 16 14.8715 -12 
-16 14.5997 -12 -18 14.5997 -12 42 16.6207 -12 
40.5333 18 -12 40 18 -12.3873 28.0197 18 -12 
28 17.9581 -12 40 18.2934 -12 38 18.8839 -12 
36 19 -12 34 19 -12 32 19 -12 
30 18.8839 -12 -30 -16 -10.5492 -30 -16.3654 -10 
-29.4932 -16 -10 -32 -16 -11.6378 -32 -17.0176 -10 
-34 -16 -10.2413 -34 -16.16 -10 -34.1473 -16 -10 
32 -15.6089 -10 33.1883 -14 -10 30 -14 -10.9504 
30 -14.7066 -10 28.9341 -14 -10 -28 -14 -11.1513 
-28 -14.9663 -10 -26.0218 -14 -10 -34.8225 -14 -10 
32.6571 -12 -10 28 -12 -11.9827 28 -13.3668 -10 
26 -12 -10.1971 26 -12.16 -10 25.8121 -12 -10 
-24 -12 -10.1528 -24 -12.1879 -10 -23.8029 -12 -10 
-26 -12 -11.1844 -26 -13.9836 -10 -34 -12 -11.7715 
-34.5563 -12 -10 32 -10.9259 -10 32 -10 -11.1211 
31.3498 -10 -10 26 -10 -11.2133 24.128 -10 -10 
-22 -10 -10.2934 -22 -10.3702 -10 -21.5562 -10 -10 
-24 -10 -10.884 -26 -10 -11.4003 -32 -10 -11.6521 
-33.5901 -10 -10 -34 -10.7087 -10 30.7116 -8 -10 
26 -8 -11.2584 24 -9.71538 -10 24 -8 -10.4768 
23.4528 -8 -10 -20 -8 -10.1473 -20 -8.24134 -10 
-19.8335 -8 -10 -22 -8 -10.9141 -24 -8 -10.9731 
-26 -8 -11.2223 -32 -8 -10.5483 -32.4577 -8 -10 
30 -7.16883 -10 28 -6.13552 -10 26 -6 -10.1181 
26.9394 -6 -10 25.2624 -6 -10 24 -6.40197 -10 
-20 -6 -10.6672 -18.8583 -6 -10 -22 -6 -10.9731 
-24 -6 -10.8367 -26 -6 -10.5496 -28 -6 -10.3656 
-30 -6 -10.5189 -31.0301 -6 -10 -32 -6.85658 -10 
26 -5.92262 -10 -18 -4 -10.4638 -18 -4.93666 -10 
-17.0633 -4 -10 -20 -4 -10.9141 -22 -4 -10.9092 
-24 -4 -10.4473 -24.7776 -4 -10 -26 -5.14561 -10 
-28 -5.66161 -10 -30 -5.07333 -10 -16 -2 -10.4638 
-16 -2.93666 -10 -15.0633 -2 -10 -18 -2 -10.9141 
-20 -2 -11 -22 -2 -10.7758 -23.4424 -2 -10 
-24 -2.91911 -10 22 0 -10.2684 22 -0.258804 -10 
22.9082 0 -10 20 0 -10.0022 20 -0.00202942 -10 
19.9709 0 -10 -14 0 -10.6672 -14 -1.14165 -10 
-12.4608 0 -10 -16 0 -10.9141 -18 0 -11 
-20 0 -11 -22 0 -10.6877 -23.3637 0 -10 
-30 0 -10.1253 -30 -0.271675 -10 -29.7164 0 -10 
-30.2717 0 -10 24 2 -10.8843 24 0.526123 -10 
25 2 -10 22 2 -11.3817 20 2 -11.3097 
18 0.284721 -10 18 2 -10.9302 16.1768 2 -10 
-12 2 -11 -12 0.404968 -10 -10.8111 2 -10 
-14 2 -11.4003 -16 2 -11.4003 -18 2 -11.4003 
-20 2 -11.4003 -22 2 -11.2939 -24 0.48333 -10 
-24 2 -11.4494 -26 0.729607 -10 -28 0.490334 -10 
-30 2 -11.0218 -31.7287 2 -10 26 4 -10.8843 
26 3 -10 27.8261 4 -10 16 2.09189 -10 
14 2.63919 -10 12 2.90916 -10 10 3 -10 
8 3 -10 6 4 -11.6532 6 3.33282 -10 
4.85834 4 -10 -6 4 -10.6162 -6 3.73158 -10 
-5.7412 4 -10 -8 3.02686 -10 -10 2.57413 -10 
-28 4 -11.5362 -30 4 -11.0606 -32 2.74801 -10 
-32 4 -10.2684 -32.2588 4 -10 28 6 -10.5997 
28 4.20797 -10 28.8267 6 -10 26 6 -11.4003 
4 6 -10.924 4 4.81659 -10 2.91686 6 -10 
-6 6 -11.3241 -5.29415 6 -10 -26 6 -11.6606 
-28 6 -11.0859 -30 6 -10.884 -31.8645 6 -10 
-32 5.51442 -10 28 8 -10.33 28.3873 8 -10 
26 8 -11.4607 4 8 -11 3.10789 8 -10 
-6 8 -11 -5.40028 8 -10 -26 8 -11.209 
-28 8 -10.6672 -29.972 8 -10 -30 7.98033 -10 
36 10 -10.9492 34 10 -11.1157 32 10 -11.8527 
28 8.66804 -10 27.2929 10 -10 26 10 -11.4932 
4 10 -10.4833 3.66056 10 -10 -6 10 -10.9523 
-5.40028 10 -10 -22 10 -11.795 -24 10 -11.2942 
-26 10 -10.7536 -27.1834 10 -10 -28 9.14165 -10 
38 12 -10.2413 37.7333 12 -10 36 10.7626 -10 
34 11.7352 -10 32 12 -10.9663 33.7193 12 -10 
26 12 -10.4653 26.2807 12 -10 24 12 -11.67 
4.5653 12 -10 4 10.7659 -10 -6 12 -10.7382 
[...]
POINT_DATA 5788
SCALARS scalars unsigned_short
LOOKUP_TABLE default
1 1 1 1 1 1 1 1 1 
1 1 1 1 1 1 1 1 1 
1 1 1 1 1 1 1 1 1 
1 1 1 1 1 1 1 1 1 
1 1 1 1 1 1 1 1 1 
1 1 1 1 1 1 1 1 1 
1 1 1 1 1 1 1 1 1 
1 1 1 1 1 1 1 1 1 
1 1 1 1 1 1 1 1 1 
1 1 1 1 1 1 1 1 1 
1 1 1 1 1 1 1 1 1 
1 1 1 1 1 1 1 1 1 
1 1 1 1 1 1 1 1 1 
1 1 1 1 1 1 1 1 1 
1 1 1 1 1 1 1 1 1 
1 1 1 1 1 1 1 1 1 
1 1 1 1 1 1 1 1 1 
1 1 1 1 1 1 1 1 1 
1 1 1 1 1 1 1 1 1 
1 1 1 1 1 1 1 1 1 
1 1 1 1 1 1 1 1 1 
1 1 1 1 1 1 1 1 1 
1 1 1 1 1 1 1 1 1 
1 1 1 1 1 1 1 1 1 
1 1 1 1 1 1 1 1 1 
1 1 1 1 1 1 1 1 1 
1 1 1 1 1 1 1 1 1 
1 1 1 1 1 1 1 1 1 
1 1 1 1 1 1 1 1 1 
1 1 1 1 1 1 1 1 1 
1 1 1 1 1 1 1 1 1 
1 1 1 1 1 1 1 1 1 
1 1 1 1 1 1 1 1 1 
1 1 1 1 1 1 1 1 1 
1 1 1 1 1 1 1 1 1 
1 1 1 1 1 1 1 1 1 
1 1 1 1 1 1 1 1 1 
1 1 1 1 1 1 1 1 1 
1 1 1 1 1 1 1 1 1 
1 1 1 1 1 1 1 1 1 
1 1 1 1 1 1 1 1 1 
1 1 1 1 1 1 1 1 1 
1 1 1 1 1 1 1 1 1 
1 1 1 1 1 1 1 1 1 
1 1 1 1 1 1 1 1 1 
1 1 1 1 1 1 1 1 1 
1 1 1 1 1 1 1 1 1 
1 1 1 1 1 1 1 1 1 
1 1 1 1 1 1 1 1 1 
1 1 1 1 1 1 1 1 1 
1 1 1 1 1 1 1 1 1 
1 1 1 1 1 1 1 1 1 
1 1 1 1 1 1 1 1 1 
1 1 1 1 1 1 1 1 1 
1 1 1 1 1 1 1 1 1 
1 1 1 1 1 1 1 1 1 
1 1 1 1 1 1 1 1 1 
1 1 1 1 1 1 1 1 1 
1 1 1 1 1 1 1 1 1 
1 1 1 1 1 1 1 1 1 
1 1 1 1 1 1 1 1 1 
1 1 1 1 1 1 1 1 1 
1 1 1 1 1 1 1 1 1 
1 1 1 1 1 1 1 1 1 
1 1 1 1 1 1 1 1 1 
1 1 1 1 1 1 1 1 1 
1 1 1 1 1 1 1 1 1 
1 1 1 1 1 1 1 1 1 
1 1 1 1 1 1 1 1 1 
1 1 1 1 1 1 1 1 1 
1 1 1 1 1 1 1 1 1 
1 1 1 1 1 1 1 1 1 
1 1 1 1 1 1 1 1 1 
1 1 1 1 1 1 1 1 1 
1 1 1 1 1 1 1 1 1 
1 1 1 1 1 1 1 1 1 
1 1 1 1 1 1 1 1 1 
1 1 1 1 1 1 1 1 1 
1 1 1 1 1 1 1 1 1 
1 1 1 1 1 1 1 1 1 
1 1 1 1 1 1 1 1 1 
1 1 1 1 1 1 1 1 1 
1 1 1 1 1 1 1 1 1 
1 1 1 1 1 1 1 1 1 
1 1 1 1 1 1 1 1 1 
1 1 1 1 1 1 1 1 1 
1 1 1 1 1 1 1 1 1 
1 1 1 1 1 1 1 1 1 
1 1 1 1 1 1 1 1 1 
1 1 1 1 1 1 1 1 1 
1 1 1 1 1 1 1 1 1 
1 1 1 1 1 1 1 1 1 
1 1 1 1 1 1 1 1 1 
1 1 1 1 1 1 1 1 1 
1 1 1 1 1 1 1 1 1 
1 1 1 1 1 1 1 1 1 
1 1 1 1 1 1 1 1 1 
1 1 1 1 1 1 1 1 1 
1 1 1 1 1 1 1 1 1 
1 1 1 1 1 1 1 1 1 
1 1 1 1 1 1 1 1 1 
1 1 1 1 1 1 1 1 1 
1 1 1 1 1 1 1 1 1 
1 1 1 1 1 1 1 1 1 
1 1 1 1 1 1 1 1 1 
1 1 1 1 1 1 1 1 1 
1 1 1 1 1 1 1 1 1 
1 1 1 1 1 1 1 1 1 
1 1 1 1 1 1 1 1 1 
1 1 1 1 1 1 1 1 1 
1 1 1 1 1 1 1 1 1 
1 1 1 1 1 1 1 1 1 
1 1 1 1 1 1 1 1 1 
1 1 1 1 1 1 1 1 1 
1 1 1 1 1 1 1 1 1 
1 1 1 1 1 1 1 1 1 
1 1 1 1 1 1 1 1 1 
1 1 1 1 1 1 1 1 1 
1 1 1 1 1 1 1 1 1 
1 1 1 1 1 1 1 1 1 
1 1 1 1 1 1 1 1 1 
1 1 1 1 1 1 1 1 1 
1 1 1 1 1 1 1 1 1 
1 1 1 1 1 1 1 1 1 
1 1 1 1 1 1 1 1 1 
1 1 1 1 1 1 1 1 1 
1 1 1 1 1 1 1 1 1 
1 1 1 1 1 1 1 1 1 
1 1 1 1 1 1 1 1 1 
1 1 1 1 1 1 1 1 1 
1 1 1 1 1 1 1 1 1 
1 1 1 1 1 1 1 1 1 
1 1 1 1 1 1 1 1 1 
1 1 1 1 1 1 1 1 1 
1 1 1 1 1 1 1 1 1 
1 1 1 1 1 1 1 1 1 
1 1 1 1 1 1 1 1 1 
1 1 1 1 1 1 1 1 1 
1 1 1 1 1 1 1 1 1 
1 1 1 1 1 1 1 1 1 
1 1 1 1 1 1 1 1 1 
1 1 1 1 1 1 1 1 1 
1 1 1 1 1 1 1 1 1 
1 1 1 1 1 1 1 1 1 
1 1 1 1 1 1 1 1 1 
1 1 1 1 1 1 1 1 1 
1 1 1 1 1 1 1 1 1 
1 1 1 1 1 1 1 1 1 
1 1 1 1 1 1 1 1 1 
1 1 1 1 1 1 1 1 1 
1 1 1 1 1 1 1 1 1 
1 1 1 1 1 1 1 1 1 
1 1 1 1 1 1 1 1 1 
1 1 1 1 1 1 1 1 1 
1 1 1 1 1 1 1 1 1 
1 1 1 1 1 1 1 1 1 
1 1 1 1 1 1 1 1 1 
1 1 1 1 1 1 1 1 1 
1 1 1 1 1 1 1 1 1 
1 1 1 1 1 1 1 1 1 
1 1 1 1 1 1 1 1 1 
1 1 1 1 1 1 1 1 1 
1 1 1 1 1 1 1 1 1 
1 1 1 1 1 1 1 1 1 
1 1 1 1 1 1 1 1 1 
1 1 1 1 1 1 1 1 1 
1 1 1 1 1 1 1 1 1 
1 1 1 1 1 1 1 1 1 
1 1 1 1 1 1 1 1 1 
1 1 1 1 1 1 1 1 1 
1 1 1 1 1 1 1 1 1 
1 1 1 1 1 1 1 1 1 
1 1 1 1 1 1 1 1 1 
1 1 1 1 1 1 1 1 1 
1 1 1 1 1 1 1 1 1 
1 1 1 1 1 1 1 1 1 
1 1 1 1 1 1 1 1 1 
1 1 1 1 1 1 1 1 1 
1 1 1 1 1 1 1 1 1 
1 1 1 1 1 1 1 1 1 
1 1 1 1 1 1 1 1 1 
1 1 1 1 1 1 1 1 1 
1 1 1 1 1 1 1 1 1 
1 1 1 1 1 1 1 1 1 
1 1 1 1 1 1 1 1 1 
1 1 1 1 1 1 1 1 1 
1 1 1 1 1 1 1 1 1 
1 1 1 1 1 1 1 1 1 
1 1 1 1 1 1 1 1 1 
1 1 1 1 1 1 1 1 1 
1 1 1 1 1 1 1 1 1 
1 1 1 1 1 1 1 1 1 
1 1 1 1 1 1 1 1 1 
1 1 1 1 1 1 1 1 1 
1 1 1 1 1 1 1 1 1 
1 1 1 1 1 1 1 1 1 
1 1 1 1 1 1 1 1 1 
1 1 1 1 1 1 1 1 1 
1 1 1 1 1 1 1 1 1 
1 1 1 1 1 1 1 1 1 
1 1 1 1 1 1 1 1 1 
1 1 1 1 1 1 1 1 1 
1 1 1 1 1 1 1 1 1 
1 1 1 1 1 1 1 1 1 
1 1 1 1 1 1 1 1 1 
1 1 1 1 1 1 1 1 1 
1 1 1 1 1 1 1 1 1 
1 1 1 1 1 1 1 1 1 
1 1 1 1 1 1 1 1 1 
1 1 1 1 1 1 1 1 1 
1 1 1 1 1 1 1 1 1 
1 1 1 1 1 1 1 1 1 
1 1 1 1 1 1 1 1 1 
1 1 1 1 1 1 1 1 1 
1 1 1 1 1 1 1 1 1 
1 1 1 1 1 1 1 1 1 
1 1 1 1 1 1 1 1 1 
1 1 1 1 1 1 1 1 1 
1 1 1 1 1 1 1 1 1 
1 1 1 1 1 1 1 1 1 
1 1 1 1 1 1 1 1 1 
1 1 1 1 1 1 1 1 1 
1 1 1 1 1 1 1 1 1 
1 1 1 1 1 1 1 1 1 
1 1 1 1 1 1 1 1 1 
1 1 1 1 1 1 1 1 1 
1 1 1 1 1 1 1 1 1 
1 1 1 1 1 1 1 1 1 
1 1 1 1 1 1 1 1 1 
1 1 1 1 1 1 1 1 1 
1 1 1 1 1 1 1 1 1 
1 1 1 1 1 1 1 1 1 
1 1 1 1 1 1 1 1 1 
1 1 1 1 1 1 1 1 1 
1 1 1 1 1 1 1 1 1 
1 1 1 1 1 1 1 1 1 
1 1 1 1 1 1 1 1 1 
1 1 1 1 1 1 1 1 1 
1 1 1 1 1 1 1 1 1 
1 1 1 1 1 1 1 1 1 
1 1 1 1 1 1 1 1 1 
1 1 1 1 1 1 1 1 1 
1 1 1 1 1 1 1 1 1 
1 1 1 1 1 1 1 1 1 
1 1 1 1 1 1 1 1 1 
1 1 1 1 1 1 1 1 1 
1 1 1 1 1 1 1 1 1 
1 1 1 1 1 1 1 1 1 
1 1 1 1 1 1 1 1 1 
1 1 1 1 1 1 1 1 1 
1 1 1 1 1 1 1 1 1 
1 1 1 1 1 1 1 1 1 
1 1 1 1 1 1 1 1 1 
1 1 1 1 1 1 1 1 1 
1 1 1 1 1 1 1 1 1 
1 1 1 1 1 1 1 1 1 
1 1 1 1 1 1 1 1 1 
1 1 1 1 1 1 1 1 1 
1 1 1 1 1 1 1 1 1 
1 1 1 1 1 1 1 1 1 
1 1 1 1 1 1 1 1 1 
1 1 1 1 1 1 1 1 1 
1 1 1 1 1 1 1 1 1 
1 1 1 1 1 1 1 1 1 
1 1 1 1 1 1 1 1 1 
1 1 1 1 1 1 1 1 1 
1 1 1 1 1 1 1 1 1 
1 1 1 1 1 1 1 1 1 
1 1 1 1 1 1 1 1 1 
1 1 1 1 1 1 1 1 1 
1 1 1 1 1 1 1 1 1 
1 1 1 1 1 1 1 1 1 
1 1 1 1 1 1 1 1 1 
1 1 1 1 1 1 1 1 1 
1 1 1 1 1 1 1 1 1 
1 1 1 1 1 1 1 1 1 
1 1 1 1 1 1 1 1 1 
1 1 1 1 1 1 1 1 1 
1 1 1 1 1 1 1 1 1 
1 1 1 1 1 1 1 1 1 
1 1 1 1 1 1 1 1 1 
1 1 1 1 1 1 1 1 1 
1 1 1 1 1 1 1 1 1 
1 1 1 1 1 1 1 1 1 
1 1 1 1 1 1 1 1 1 
1 1 1 1 1 1 1 1 1 
1 1 1 1 1 1 1 1 1 
1 1 1 1 1 1 1 1 1 
1 1 1 1 1 1 1 1 1 
1 1 1 1 1 1 1 1 1 
1 1 1 1 1 1 1 1 1 
1 1 1 1 1 1 1 1 1 
1 1 1 1 1 1 1 1 1 
1 1 1 1 1 1 1 1 1 
1 1 1 1 1 1 1 1 1 
1 1 1 1 1 1 1 1 1 
1 1 1 1 1 1 1 1 1 
1 1 1 1 1 1 1 1 1 
1 1 1 1 1 1 1 1 1 
1 1 1 1 1 1 1 1 1 
1 1 1 1 1 1 1 1 1 
1 1 1 1 1 1 1 1 1 
1 1 1 1 1 1 1 1 1 
1 1 1 1 1 1 1 1 1 
1 1 1 1 1 1 1 1 1 
1 1 1 1 1 1 1 1 1 
1 1 1 1 1 1 1 1 1 
1 1 1 1 1 1 1 1 1 
1 1 1 1 1 1 1 1 1 
1 1 1 1 1 1 1 1 1 
1 1 1 1 1 1 1 1 1 
1 1 1 1 1 1 1 1 1 
1 1 1 1 1 1 1 1 1 
1 1 1 1 1 1 1 1 1 
1 1 1 1 1 1 1 1 1 
1 1 1 1 1 1 1 1 1 
1 1 1 1 1 1 1 1 1 
1 1 1 1 1 1 1 1 1 
1 1 1 1 1 1 1 1 1 
1 1 1 1 1 1 1 1 1 
1 1 1 1 1 1 1 1 1 
1 1 1 1 1 1 1 1 1 
1 1 1 1 1 1 1 1 1 
1 1 1 1 1 1 1 1 1 
1 1 1 1 1 1 1 1 1 
1 1 1 1 1 1 1 1 1 
1 1 1 1 1 1 1 1 1 
1 1 1 1 1 1 1 1 1 
1 1 1 1 1 1 1 1 1 
1 1 1 1 1 1 1 1 1 
1 1 1 1 1 1 1 1 1 
1 1 1 1 1 1 1 1 1 
1 1 1 1 1 1 1 1 1 
1 1 1 1 1 1 1 1 1 
1 1 1 1 1 1 1 1 1 
1 1 1 1 1 1 1 1 1 
1 1 1 1 1 1 1 1 1 
1 1 1 1 1 1 1 1 1 
1 1 1 1 1 1 1 1 1 
1 1 1 1 1 1 1 1 1 
1 1 1 1 1 1 1 1 1 
1 1 1 1 1 1 1 1 1 
1 1 1 1 1 1 1 1 1 
1 1 1 1 1 1 1 1 1 
1 1 1 1 1 1 1 1 1 
1 1 1 1 1 1 1 1 1 
1 1 1 1 1 1 1 1 1 
1 1 1 1 1 1 1 1 1 
1 1 1 1 1 1 1 1 1 
1 1 1 1 1 1 1 1 1 
1 1 1 1 1 1 1 1 1 
1 1 1 1 1 1 1 1 1 
1 1 1 1 1 1 1 1 1 
1 1 1 1 1 1 1 1 1 
1 1 1 1 1 1 1 1 1 
1 1 1 1 1 1 1 1 1 
1 1 1 1 1 1 1 1 1 
1 1 1 1 1 1 1 1 1 
1 1 1 1 1 1 1 1 1 
1 1 1 1 1 1 1 1 1 
1 1 1 1 1 1 1 1 1 
1 1 1 1 1 1 1 1 1 
1 1 1 1 1 1 1 1 1 
1 1 1 1 1 1 1 1 1 
1 1 1 1 1 1 1 1 1 
1 1 1 1 1 1 1 1 1 
1 1 1 1 1 1 1 1 1 
1 1 1 1 1 1 1 1 1 
1 1 1 1 1 1 1 1 1 
1 1 1 1 1 1 1 1 1 
1 1 1 1 1 1 1 1 1 
1 1 1 1 1 1 1 1 1 
1 1 1 1 1 1 1 1 1 
1 1 1 1 1 1 1 1 1 
1 1 1 1 1 1 1 1 1 
1 1 1 1 1 1 1 1 1 
1 1 1 1 1 1 1 1 1 
1 1 1 1 1 1 1 1 1 
1 1 1 1 1 1 1 1 1 
1 1 1 1 1 1 1 1 1 
1 1 1 1 1 1 1 1 1 
1 1 1 1 1 1 1 1 1 
1 1 1 1 1 1 1 1 1 
1 1 1 1 1 1 1 1 1 
1 1 1 1 1 1 1 1 1 
1 1 1 1 1 1 1 1 1 
1 1 1 1 1 1 1 1 1 
1 1 1 1 1 1 1 1 1 
1 1 1 1 1 1 1 1 1 
1 1 1 1 1 1 1 1 1 
1 1 1 1 1 1 1 1 1 
1 1 1 1 1 1 1 1 1 
1 1 1 1 1 1 1 1 1 
1 1 1 1 1 1 1 1 1 
1 1 1 1 1 1 1 1 1 
1 1 1 1 1 1 1 1 1 
1 1 1 1 1 1 1 1 1 
1 1 1 1 1 1 1 1 1 
1 1 1 1 1 1 1 1 1 
1 1 1 1 1 1 1 1 1 
1 1 1 1 1 1 1 1 1 
1 1 1 1 1 1 1 1 1 
1 1 1 1 1 1 1 1 1 
1 1 1 1 1 1 1 1 1 
1 1 1 1 1 1 1 1 1 
1 1 1 1 1 1 1 1 1 
1 1 1 1 1 1 1 1 1 
1 1 1 1 1 1 1 1 1 
1 1 1 1 1 1 1 1 1 
1 1 1 1 1 1 1 1 1 
1 1 1 1 1 1 1 1 1 
1 1 1 1 1 1 1 1 1 
1 1 1 1 1 1 1 1 1 
1 1 1 1 1 1 1 1 1 
1 1 1 1 1 1 1 1 1 
1 1 1 1 1 1 1 1 1 
1 1 1 1 1 1 1 1 1 
1 1 1 1 1 1 1 1 1 
1 1 1 1 1 1 1 1 1 
1 1 1 1 1 1 1 1 1 
1 1 1 1 1 1 1 1 1 
1 1 1 1 1 1 1 1 1 
1 1 1 1 1 1 1 1 1 
1 1 1 1 1 1 1 1 1 
1 1 1 1 1 1 1 1 1 
1 1 1 1 1 1 1 1 1 
1 1 1 1 1 1 1 1 1 
1 1 1 1 1 1 1 1 1 
1 1 1 1 1 1 1 1 1 
1 1 1 1 1 1 1 1 1 
1 1 1 1 1 1 1 1 1 
1 1 1 1 1 1 1 1 1 
1 1 1 1 1 1 1 1 1 
1 1 1 1 1 1 1 1 1 
1 1 1 1 1 1 1 1 1 
1 1 1 1 1 1 1 1 1 
1 1 1 1 1 1 1 1 1 
1 1 1 1 1 1 1 1 1 
1 1 1 1 1 1 1 1 1 
1 1 1 1 1 1 1 1 1 
1 1 1 1 1 1 1 1 1 
1 1 1 1 1 1 1 1 1 
1 1 1 1 1 1 1 1 1 
1 1 1 1 1 1 1 1 1 
1 1 1 1 1 1 1 1 1 
1 1 1 1 1 1 1 1 1 
1 1 1 1 1 1 1 1 1 
1 1 1 1 1 1 1 1 1 
1 1 1 1 1 1 1 1 1 
1 1 1 1 1 1 1 1 1 
1 1 1 1 1 1 1 1 1 
1 1 1 1 1 1 1 1 1 
1 1 1 1 1 1 1 1 1 
1 1 1 1 1 1 1 1 1 
1 1 1 1 1 1 1 1 1 
1 1 1 1 1 1 1 1 1 
1 1 1 1 1 1 1 1 1 
1 1 1 1 1 1 1 1 1 
1 1 1 1 1 1 1 1 1 
1 1 1 1 1 1 1 1 1 
1 1 1 1 1 1 1 1 1 
1 1 1 1 1 1 1 1 1 
1 1 1 1 1 1 1 1 1 
1 1 1 1 1 1 1 1 1 
1 1 1 1 1 1 1 1 1 
1 1 1 1 1 1 1 1 1 
1 1 1 1 1 1 1 1 1 
1 1 1 1 1 1 1 1 1 
1 1 1 1 1 1 1 1 1 
1 1 1 1 1 1 1 1 1 
1 1 1 1 1 1 1 1 1 
1 1 1 1 1 1 1 1 1 
1 1 1 1 1 1 1 1 1 
1 1 1 1 1 1 1 1 1 
1 1 1 1 1 1 1 1 1 
1 1 1 1 1 1 1 1 1 
1 1 1 1 1 1 1 1 1 
1 1 1 1 1 1 1 1 1 
1 1 1 1 1 1 1 1 1 
1 1 1 1 1 1 1 1 1 
1 1 1 1 1 1 1 1 1 
1 1 1 1 1 1 1 1 1 
1 1 1 1 1 1 1 1 1 
1 1 1 1 1 1 1 1 1 
1 1 1 1 1 1 1 1 1 
1 1 1 1 1 1 1 1 1 
1 1 1 1 1 1 1 1 1 
1 1 1 1 1 1 1 1 1 
1 1 1 1 1 1 1 1 1 
1 1 1 1 1 1 1 1 1 
1 1 1 1 1 1 1 1 1 
1 1 1 1 1 1 1 1 1 
1 1 1 1 1 1 1 1 1 
1 1 1 1 1 1 1 1 1 
1 1 1 1 1 1 1 1 1 
1 1 1 1 1 1 1 1 1 
1 1 1 1 1 1 1 1 1 
1 1 1 1 1 1 1 1 1 
1 1 1 1 1 1 1 1 1 
1 1 1 1 1 1 1 1 1 
1 1 1 1 1 1 1 1 1 
1 1 1 1 1 1 1 1 1 
1 1 1 1 1 1 1 1 1 
1 1 1 1 1 1 1 1 1 
1 1 1 1 1 1 1 1 1 
1 1 1 1 1 1 1 1 1 
1 1 1 1 1 1 1 1 1 
1 1 1 1 1 1 1 1 1 
1 1 1 1 1 1 1 1 1 
1 1 1 1 1 1 1 1 1 
1 1 1 1 1 1 1 1 1 
1 1 1 1 1 1 1 1 1 
1 1 1 1 1 1 1 1 1 
1 1 1 1 1 1 1 1 1 
1 1 1 1 1 1 1 1 1 
1 1 1 1 1 1 1 1 1 
1 1 1 1 1 1 1 1 1 
1 1 1 1 1 1 1 1 1 
1 1 1 1 1 1 1 1 1 
1 1 1 1 1 1 1 1 1 
1 1 1 1 1 1 1 1 1 
1 1 1 1 1 1 1 1 1 
1 1 1 1 1 1 1 1 1 
1 1 1 1 1 1 1 1 1 
1 1 1 1 1 1 1 1 1 
1 1 1 1 1 1 1 1 1 
1 1 1 1 1 1 1 1 1 
1 1 1 1 1 1 1 1 1 
1 1 1 1 1 1 1 1 1 
1 1 1 1 1 1 1 1 1 
1 1 1 1 1 1 1 1 1 
1 1 1 1 1 1 1 1 1 
1 1 1 1 1 1 1 1 1 
1 1 1 1 1 1 1 1 1 
1 1 1 1 1 1 1 1 1 
1 1 1 1 1 1 1 1 1 
1 1 1 1 1 1 1 1 1 
1 1 1 1 1 1 1 1 1 
1 1 1 1 1 1 1 1 1 
1 1 1 1 1 1 1 1 1 
1 1 1 1 1 1 1 1 1 
1 1 1 1 1 1 1 1 1 
1 1 1 1 1 1 1 1 1 
1 1 1 1 1 1 1 1 1 
1 1 1 1 1 1 1 1 1 
1 1 1 1 1 1 1 1 1 
1 1 1 1 1 1 1 1 1 
1 1 1 1 1 1 1 1 1 
1 1 1 1 1 1 1 1 1 
1 1 1 1 1 1 1 1 1 
1 1 1 1 1 1 1 1 1 
1 1 1 1 1 1 1 1 1 
1 1 1 1 1 1 1 1 1 
1 1 1 1 1 1 1 1 1 
1 1 1 1 1 1 1 1 1 
1 1 1 1 1 1 1 1 1 
1 1 1 1 1 1 1 1 1 
1 1 1 1 1 1 1 1 1 
1 1 1 1 1 1 1 1 1 
1 1 1 1 1 1 1 1 1 
1 1 1 1 1 1 1 1 1 
1 1 1 1 1 1 1 1 1 
1 1 1 1 1 1 1 1 1 
1 1 1 1 1 1 1 1 1 
1 1 1 1 1 1 1 1 1 
1 1 1 1 1 1 1 1 1 
1 1 1 1 1 1 1 1 1 
1 1 1 1 1 1 1 1 1 
1 1 1 1 1 1 1 1 1 
1 1 1 1 1 1 1 1 1 
1 1 1 1 1 1 1 1 1 
1 1 1 1 1 1 1 1 1 
1 1 1 1 1 1 1 1 1 
1 1 1 1 1 1 1 1 1 
1 1 1 1 1 1 1 1 1 
1 1 1 1 1 1 1 1 1 
1 1 1 1 1 1 1 1 1 
1 1 1 1 1 1 1 1 1 
1 1 1 1 1 1 1 1 1 
1 1 1 1 1 1 1 1 1 
1 1 1 1 1 1 1 1 1 
1 1 1 1 1 1 1 1 1 
1 1 1 1 1 1 1 1 1 
1 1 1 1 1 1 1 1 1 
1 1 1 1 1 1 1 1 1 
1 1 1 1 1 1 1 1 1 
1 1 1 1 1 1 1 1 1 
1 1 1 1 1 1 1 1 1 
1 1 1 1 1 1 1 1 1 
1 1 1 1 1 1 1 1 1 
1 1 1 1 1 1 1 1 1 
1 1 1 1 1 1 1 1 1 
1 1 1 1 1 1 1 1 1 
1 1 1 1 1 1 1 1 1 
1 1 1 1 1 1 1 1 1 
1 1 1 1 1 1 1 1 1 
1 1 1 1 1 1 1 1 1 
1 1 1 1 1 1 1 1 1 
1 1 1 1 1 1 1 1 1 
1 1 1 1 1 1 1 1 1 
1 1 1 1 1 1 1 1 1 
1 1 1 1 1 1 1 1 1 
1 1 1 1 1 1 1 1 1 
1 1 1 1 1 1 1 1 1 
1 1 1 1 1 1 1 1 1 
1 1 1 1 1 1 1 1 1 
1 1 1 1 1 1 1 1 1 
1 1 1 1 1 1 1 1 1 
1 1 1 1 1 1 1 1 1 
1 1 1 1 1 1 1 1 1 
1 1 1 1 1 1 1 1 1 
1 1 1 1 1 1 1 1 1 
1 1 1 1 1 1 1 1 1 
1 1 1 1 1 1 1 1 1 
1 1 1 1 1 1 1 1 1 
1 1 1 1 1 1 1 1 1 
1 1 1 1 1 1 1 1 1 
1 1 1 1 1 1 1 1 1 
1 1 1 1 1 1 1 1 1 
1 1 1 1 1 1 1 1 1 
1 1 1 1 1 1 1 1 1 
1 1 1 1 1 1 1 1 1 
1 1 1 1 1 1 1 1 1 
1 1 1 1 1 1 1 1 1 
1 1 1 1 1 1 1 1 1 
1 1 1 1 1 1 1 1 1 
1 1 1 1 1 1 1 1 1 
1 1 1 1 1 1 1 1 1 
1 1 1 1 1 1 1 1 1 
1 1 1 1 1 1 1 1 1 
1 1 1 1 1 1 1 1 1 
1 1 1 1 1 1 1 1 1 
1 1 1 1 1 1 1 1 1 
1 1 1 1 1 1 1 1 1 
1 1 1 1 1 1 1 1 1 
1 1 1 1 1 1 1 1 1 
1 1 1 1 1 1 1 1 1 
1 1 1 1 1 1 1 1 1 
1 1 1 1 1 1 1 1 1 
1 1 1 1 1 1 1 1 1 
1 1 1 1 1 1 1 1 1 
1 1 1 1 1 1 1 1 1 
1 1 1 1 1 1 1 1 1 
1 
NORMALS normals float
-0.0474845 0.356631 0.933038 0.0802905 0.564031 0.821841 -0.569988 0.0454482 0.820395 
0.291172 0.635309 0.715263 0.304017 0.661468 0.68559 0.308288 0.661295 0.683848 
-0.360764 0.0113234 0.932589 -0.574126 -0.111926 0.811081 1.79585e-08 0.219438 0.975627 
0.335737 0.608917 0.71868 0.242188 0.388419 0.889087 0.600859 0.427951 0.675149 
-0.453431 -0.138748 0.880426 -0.574006 -0.150627 0.804878 -0.118073 -0.0987167 0.988086 
0.154878 -0.0563372 0.986326 0.651426 0.34871 0.673829 0.652827 -0.0454485 0.756143 
0.756016 -0.0489905 0.652717 -0.406106 -0.420461 0.811351 -0.432258 -0.415082 0.800537 
-0.0730279 -0.494378 0.866174 0.185119 -0.573149 0.798268 0.427669 -0.5934 0.681892 
0.652024 -0.347429 0.673912 -0.398378 -0.446425 0.801249 -0.0348479 -0.611397 0.790556 
0.205263 -0.666948 0.716274 -0.503635 0.76291 0.405365 -0.510539 0.815898 0.271404 
-0.600446 0.754078 0.266141 0.284265 0.857092 0.429634 0.281083 0.905669 0.317422 
0.351989 0.891758 0.284379 -0.64121 0.00888844 0.767314 -0.902622 0.213808 0.373577 
0.478291 0.865438 0.149183 0.417213 0.870261 0.261877 0.412983 0.908817 0.0591399 
0.493051 0.86756 0.0651159 -0.704745 -0.14731 0.693999 -0.724413 0.0442071 0.687947 
0.654816 0.430203 0.621403 0.734834 0.669597 0.107976 0.920075 0.367123 0.136683 
-0.667712 -0.126652 0.733567 -0.604695 -0.0439911 0.795241 0.986944 -0.0438606 0.154975 
-0.601667 -0.308013 0.73697 -0.554096 -0.258907 0.791167 0.643761 -0.564325 0.516825 
0.820899 -0.495769 0.283438 -0.507453 -0.407779 0.759084 -0.232508 -0.64177 0.730802 
-0.33969 -0.560113 0.755569 0.144308 -0.730993 0.666951 0.303928 -0.763459 0.569876 
0.36163 -0.77179 0.523034 0.674379 -0.638237 0.371305 -0.187517 -0.66205 0.725621 
0.194906 -0.736984 0.647199 -0.519774 0.844688 -0.127818 -0.634502 0.761985 -0.129559 
0.325332 0.938224 -0.117878 0.479892 0.863055 -0.157606 -0 0.528211 0.849113 
-0 0.643134 0.765754 -0.317857 0.504722 0.802635 0.358027 0.497042 0.790421 
-0.808809 0.583993 0.0691463 0.601769 0.738144 -0.304988 0.42894 0.886024 -0.175988 
0.456684 0.798322 -0.392584 -0.357149 0.296393 0.885774 -0.336942 0.351898 0.873291 
-0.383896 0.280564 0.87972 -0 0.347528 0.93767 -0 0.520756 0.853705 
0.344228 0.297928 0.890363 0.319894 0.354114 0.87879 0.366319 0.275776 0.888683 
-0.350054 -0.240119 0.905431 -0.393058 0.291355 0.872134 -0.37239 -0.21254 0.903412 
-0 -0.300761 0.953699 0.443098 0.284054 0.850281 0.403347 -0.234561 0.884473 
0.444182 -0.217049 0.869248 -0.649079 0.341386 0.679817 -0.72414 0.617971 0.306158 
-0.551719 0.597495 0.581899 0.413911 0.819364 -0.396637 0.700812 0.669172 -0.247127 
0.841796 0.518437 -0.15034 -0.357149 -0.296393 0.885774 -0.383896 -0.280564 0.87972 
-0 -0.347528 0.93767 0.344228 -0.297928 0.890363 0.366319 -0.275776 0.888683 
-0.326014 -0.302675 0.895602 -0 -0.490436 0.871477 0.383386 -0.295703 0.874971 
-0.551234 0.134653 0.823414 -0.562301 0.556215 0.611917 -0.661436 0.121588 0.740081 
-0.5298 0.0440378 0.846978 0.991605 0.0820164 -0.0999649 -0.337683 -0.352671 0.872693 
-0 -0.530514 0.847676 0.32289 -0.35743 0.876348 -0.547327 -0.133878 0.826142 
-0.63519 -0.155414 0.756558 -0.458921 -0.166057 0.872821 0.966157 -0.257001 -0.0221679 
-0.543318 -0.419629 0.727129 -0.54001 -0.424717 0.726639 -0.342347 -0.426393 0.83725 
-0.40387 -0.485126 0.775591 0.377697 -0.778313 0.501572 0.658176 -0.706243 0.260815 
0.694035 -0.681114 0.233237 -0.339219 -0.596019 0.727799 -0.291559 -0.723779 0.62541 
-0.283188 -0.72382 0.629197 -0.0272678 -0.790743 0.611541 0.354108 -0.803794 0.478041 
0.378211 -0.807796 0.45213 0.465251 -0.800063 0.378734 -0.27754 -0.74583 0.605565 
0.00470471 -0.868483 0.495696 0.361608 -0.81408 0.454437 -0.49475 0.77163 -0.399761 
0.360452 0.787073 -0.50059 -0.303291 0.517666 0.800023 -0.256531 0.565571 0.783787 
-0.325411 0.476604 0.816674 -0.135 0.63458 0.760975 -0.080431 0.691242 0.718133 
-0 0.690691 0.72315 -0 0.72315 0.690691 0.0779174 0.638496 0.765671 
0.0258638 0.697019 0.716586 0.167154 0.509924 0.843823 0.105695 0.626472 0.772244 
0.397955 0.380652 0.834707 0.377687 0.42538 0.822438 0.43524 0.3622 0.824243 
-0.377494 0.4644 0.801143 -0.214798 0.653565 0.725751 -0.557167 0.35774 0.749391 
-0.367584 0.498598 0.785036 -0.0925227 0.790938 0.604861 -0 0.834109 0.551599 
0.416096 0.487517 0.767588 0.153795 0.779818 0.60682 0.520358 0.406688 0.750887 
0.413833 0.502153 0.759332 0.472765 0.352257 0.807718 -0.422173 0.687166 -0.591247 
-0.56045 0.735665 -0.380385 0.348852 0.675455 -0.649664 0.561182 0.660613 -0.498662 
0.498138 0.587507 -0.637726 -0.484591 0.183354 0.855309 -0.437049 0.280223 0.854672 
-0.470554 0.155122 0.868629 -0.450765 0.196 0.870859 0.402739 0.165391 0.900249 
0.509965 0.09395 0.855049 0.597783 0.076513 0.797998 -0.663155 -0.0130923 0.748367 
-0.564517 0.346042 0.749383 -0.732344 -0.0201247 0.680637 -0.428196 -0.0652472 0.901327 
0.622345 -0.0545065 0.780843 0.590313 -0.0428073 0.806039 -0.564369 0.650558 0.508195 
-0.486014 0.866672 -0.112563 -0.6184 0.777632 -0.113444 -0.554994 0.817103 -0.155963 
0.492943 0.596853 -0.633067 0.269154 0.727606 -0.630988 0.604806 0.719435 -0.3415 
0.508265 0.740784 -0.439211 -0.490494 -0.222356 0.842599 -0.461831 -0.225187 0.857906 
-0.450167 -0.202397 0.869704 0.400964 -0.189497 0.896281 0.507154 -0.140428 0.850338 
0.597149 -0.134272 0.790812 -0.598183 -0.321907 0.733862 -0.539584 -0.397037 0.742435 
-0.213218 -0.487789 0.846523 -0.0783594 -0.633197 0.770014 -0 -0.686601 0.727035 
0.163579 -0.614876 0.771472 0.424649 -0.395059 0.814617 0.456212 -0.362112 0.812862 
-0.930212 0.264523 0.254429 -0.918384 0.379778 0.111086 -0.939446 0.297088 0.170819 
0.622702 0.662397 -0.4165 0.899351 0.0967204 -0.426396 -0.482036 -0.327769 0.812532 
-0.36659 -0.548547 0.751471 -0.331005 -0.548189 0.768065 -0.115581 -0.661989 0.740548 
0.0280798 -0.762365 0.646537 0.0833703 -0.750388 0.655719 0.169246 -0.658372 0.733418 
0.375193 -0.578231 0.724485 0.427843 -0.514631 0.743038 -0.155265 -0.562464 0.812113 
-0.0153861 -0.660434 0.750726 -0.0172538 -0.685767 0.727616 0.0710395 -0.606633 0.791801 
0.380874 -0.417127 0.825191 -0.786029 -0.115327 0.607337 -0.797765 -0.0745012 0.598348 
0.88387 -0.158068 -0.440214 -0.308667 -0.586988 0.748444 -0.0345599 -0.71475 0.698525 
0.0707701 -0.809623 0.582668 0.0582795 -0.813322 0.578888 0.136459 -0.737914 0.660956 
-0.707822 -0.272307 0.651795 -0.542878 -0.424327 0.724728 -0.656692 -0.356406 0.664628 
0.81056 -0.532129 -0.244606 0.827967 -0.477165 -0.294593 -0.444128 -0.711978 0.543909 
-0.460881 -0.701463 0.543635 -0.293193 -0.766592 0.571292 0.510902 -0.826807 0.235308 
0.599538 -0.782822 0.166567 -0.436831 -0.730654 0.524713 -0.195822 -0.904137 0.379723 
-0.0928675 -0.971872 0.216425 0.0617523 -0.989956 0.127176 0.353164 -0.914912 0.19548 
0.0511697 0.601991 0.796862 0.0549546 0.614951 0.786648 -0.0246983 0.60921 0.792625 
0.0875454 0.616978 0.782096 -0.36661 0.408335 0.835978 -0.402352 0.50531 0.763397 
-0.419211 0.47105 0.776128 0.0652773 0.211529 0.975189 0.03161 0.621588 0.782707 
0.679567 0.230156 0.696575 0.680339 0.255789 0.686812 0.696468 0.230791 0.679462 
-0.357727 0.227415 0.905712 -0.903629 -0.127357 0.408945 0.312239 0.610413 0.727945 
0.204272 0.468793 0.859364 0.467866 0.528073 0.70869 -0.408433 0.297719 0.862871 
-0.441339 0.383341 0.811338 -0.440754 0.287009 0.850507 -0.0993599 0.0789806 0.991912 
0.222585 -0.274324 0.935522 0.65028 -0.354412 0.671958 0.715992 -0.036191 0.69717 
-0.837113 -0.319463 0.444056 -0.928586 -0.364515 0.0696898 0.105856 0.0430213 0.99345 
0.472049 0.523229 0.709508 0.485221 0.138295 0.863386 0.554501 0.152889 0.818018 
-0.333989 -0.0329406 0.942001 -0.427445 -0.00968826 0.90399 0.207114 -0.175893 0.962375 