# vtk DataFile Version 4.0
vtk output
ASCII
DATASET POLYDATA
POINTS 6698 float
30 -2 -30.0746 30 -2.22451 -30 30.1049 -2 -30 
28 -2 -30.4516 28 -2.58729 -30 26 -2 -30.3984 
26 -2.39838 -30 24 -2 -30.3984 24 -2.39838 -30 
22 -2 -30.3984 22 -2.39838 -30 20.3331 -2 -30 
30 -1.8512 -30 28.6676 0 -30 28 0 -30.4141 
26 0 -30.9141 24 0 -30.9141 22 0 -30.7059 
20 -1.44636 -30 20 0 -30.205 19.6016 0 -30 
28 0.634453 -30 26.1387 2 -30 26 2 -30.0774 
24 2 -30.0774 23.8031 2 -30 22 1.12852 -30 
20 0.312347 -30 26 2.07738 -30 24 2.07738 -30 
32 -4 -28.0998 32 -4.08042 -28 32.0902 -4 -28 
30 -4 -29.0508 30 -4.55635 -28 28.504 -4 -28 
32 -2 -28.2807 32.2214 -2 -28 28 -3.78776 -28 
26 -3.29415 -28 24 -3.08593 -28 22 -3 -28 
20 -2 -29.8645 20 -2.88395 -28 18 -2 -28.7091 
18 -2.57413 -28 16.6519 -2 -28 -18 -2 -28.602 
-18 -2.52705 -28 -16.4257 -2 -28 -20 -2 -29.2223 
-20 -2.77584 -28 -22 -2 -29.6343 -22 -2.87714 -28 
-24 -2 -28.3756 -24 -2.20161 -28 -24.1941 -2 -28 
32 -1.70564 -28 30 0 -28.8575 30.7066 0 -28 
18 0 -29.2941 16 -1.14342 -28 16 0 -28.3984 
15.6016 0 -28 -16 0 -28.4516 -16 -1.51797 -28 
-15.5131 0 -28 -18 0 -29 -20 0 -29 
-22 0 -29 -24 0 -28.1879 -24.1528 0 -28 
30 0.82074 -28 28 2 -28.6345 28.6345 2 -28 
22 2 -29.1285 20 2 -28.7091 18 2 -28.4869 
16.7797 2 -28 16 1.14342 -28 -16 1.22032 -28 
-17.6178 2 -28 -18 2 -28.0774 -18.1969 2 -28 
-20 1.24067 -28 -22 1 -28 -24 0.187935 -28 
28 2.4141 -28 26 2.91407 -28 24 2.91407 -28 
22 2.70585 -28 20 2.55635 -28 18 2.45159 -28 
-18 2.07738 -28 32 -4.81198 -26 33.3975 -4 -26 
30 -4.91407 -26 28 -4 -27.6016 28 -4.70585 -26 
26 -4 -26.3984 26 -4.20505 -26 25.6016 -4 -26 
33.14 -2 -26 24 -3.29415 -26 22 -3 -26 
20 -3 -26 18 -3 -26 16 -2 -27.3481 
16 -2.57413 -26 15.224 -2 -26 -16 -2 -27.7287 
-16 -2.81198 -26 -14.4281 -2 -26 -18 -3 -26 
-20 -3 -26 -22 -3 -26 -24 -2.39838 -26 
-24.3984 -2 -26 32 -0.788063 -26 31.3582 0 -26 
14.6672 0 -26 -14.4141 0 -26 -24.884 0 -26 
30 2 -26.1387 30.0774 2 -26 16 2 -27.2203 
15.5131 2 -26 -16 2 -27.2203 -15.5131 2 -26 
-20 2 -27.1285 -22 2 -26.8267 -23.792 2 -26 
-24 1.86448 -26 30 2.07738 -26 28 2.91407 -26 
26 3 -26 24 3 -26 22 3 -26 
20 3 -26 18 3 -26 16 2.45159 -26 
-16 2.45159 -26 -18 2.91407 -26 -20 2.70585 -26 
-22 2.59972 -26 34 -4 -25.0682 34 -4.58729 -24 
34.4516 -4 -24 32 -5.27306 -24 30 -5.08593 -24 
28 -5 -24 26 -4.70585 -24 24.3984 -4 -24 
34 -2 -24.1628 34.0774 -2 -24 24 -3.79495 -24 
22 -3.40028 -24 20 -3.29415 -24 18 -3.08593 -24 
16 -2.88395 -24 14 -2 -24.6485 14 -2.46711 -24 
13.1456 -2 -24 -14 -2 -25.5109 -14 -2.73009 -24 
-12.7492 -2 -24 -16 -2.97314 -24 -18 -3 -24 
-20 -3 -24 -22 -3 -24 -24 -2.45159 -24 
-24.4869 -2 -24 34 -1.92262 -24 32 -0.539253 -24 
31.4608 0 -24 14 0 -24.973 13.1308 0 -24 
-14 0 -25.3324 -13 0 -24 -25.1951 0 -24 
30.0774 2 -24 14.973 2 -24 14 1 -24 
-14 1.09357 -24 -14.973 2 -24 -24 2 -25.7088 
-24.4869 2 -24 30 2.07738 -24 28 2.91407 -24 
26 3 -24 24 3 -24 22 3 -24 
20 3 -24 18 3 -24 16 2.66718 -24 
-16 2.66718 -24 -18 3 -24 -20 3 -24 
-22 3 -24 -24 2.45159 -24 32 -6 -22.2855 
32 -6.1421 -22 32.3996 -6 -22 31.44 -6 -22 
34 -4.9117 -22 34.4371 -4 -22 30 -5.66056 -22 
28 -5.40028 -22 26 -5.31585 -22 24 -4 -23.6877 
24 -5.10789 -22 22 -4 -23.1376 22 -4.89211 -22 
20 -4 -22.6759 20 -4.42082 -22 18.9124 -4 -22 
34 -2.29121 -22 34 -2 -23.0606 33.8858 -2 -22 
18 -3.66056 -22 16 -3.40028 -22 14 -3.38171 -22 
12 -2 -22.8544 12 -2.58729 -22 11.5484 -2 -22 
-12 -2 -22.7993 -12 -2.44009 -22 -11.681 -2 -22 
-14 -3.36194 -22 -16 -3.40028 -22 -18 -3.40028 -22 
-20 -3.40028 -22 -22 -3.40028 -22 -24 -2.85326 -22 
-24.8843 -2 -22 32 -0.777695 -22 30.9302 0 -22 
12 0 -22.4685 11.7165 0 -22 -12 -0.505623 -22 
-12.1235 0 -22 -25.7381 0 -22 30 0.869186 -22 
30 2 -23.8613 28.6345 2 -22 14 2 -22.5694 
13.6298 2 -22 12 0.370224 -22 -14 1.87647 -22 
-14.1913 2 -22 -24.7091 2 -22 28 2.4141 -22 
26 2.91407 -22 24 3 -22 22 3 -22 
20 3 -22 18 3 -22 16 2.91407 -22 
14 2.28352 -22 -16 2.82246 -22 -18 3 -22 
-20 3 -22 -22 3 -22 -24 2.55635 -22 
32 -6.45159 -20 32.5873 -6 -20 30 -6 -21.4003 
30 -6.70585 -20 28 -6 -21 28 -6.59972 -20 
26 -6 -20.9523 26 -6.59972 -20 24 -6 -20.8624 
24 -6.59972 -20 22 -6 -20.4833 22 -6.33944 -20 
21.0876 -6 -20 34 -4 -21.2354 33.2939 -4 -20 
20 -5.57918 -20 18 -4 -21.5167 18 -5.10789 -20 
16 -4 -21.1733 16 -5 -20 14 -4 -21.1733 
14 -5 -20 12 -4 -20.2205 12 -4.18793 -20 
11.8472 -4 -20 -12 -4 -20.3123 -12 -4.29702 -20 
-11.7611 -4 -20 -14 -4 -21.1733 -14 -5 -20 
-16 -4 -21.1733 -16 -5 -20 -18 -4 -21.1733 
-18 -5 -20 -20 -4 -21.1733 -20 -5 -20 
-22 -4 -21.1733 -22 -5 -20 -24 -4 -20.2205 
-24 -4.18793 -20 -24.1528 -4 -20 32.4389 -2 -20 
11.2113 -2 -20 -11.4437 -2 -20 -25.2939 -2 -20 
32 -1.62128 -20 30 -0.36544 -20 30 0 -20.66 
29.5418 0 -20 11.6606 0 -20 -12 -0.96624 -20 
-12.6235 0 -20 -26 -0.142395 -20 -26 0 -20.3529 
-26.0594 0 -20 28 1.2474 -20 28 2 -21.2465 
26.8228 2 -20 13.2909 2 -20 12 0.48333 -20 
-14 1.37653 -20 -14.8166 2 -20 -24.8267 2 -20 
-26 0.112175 -20 26 2.46384 -20 24 2.91407 -20 
22 3 -20 20 3 -20 18 3 -20 
16 3 -20 14 2.55635 -20 -16 2.70585 -20 
-18 3 -20 -20 3 -20 -22 3 -20 
-24 2.59972 -20 32 8 -20.5563 32 7.12635 -20 
33.7715 8 -20 30 8 -20.1473 30 7.84004 -20 
29.6452 8 -20 32 10 -20.7059 33.1285 10 -20 
30 10 -20.9141 28 8.87148 -20 28 10 -20.7059 
26.1739 10 -20 32 12 -20.5997 32.8267 12 -20 
30 12 -21 28 12 -21 26 10.3331 -20 
26 12 -20.3984 25.6016 12 -20 32 14 -20.1421 
32.1971 14 -20 30 14 -20.5563 28 14 -20.4516 
26.7797 14 -20 26 13.1434 -20 32 14.1971 -20 
30 14.7091 -20 28 14.4869 -20 -2 38 -20.3984 
-2 37.6016 -20 -0.0531601 38 -20 -4 38 -20.2588 
-4 37.7316 -20 -4.56774 38 -20 0 40 -20.4371 
0 38.0455 -20 0.613807 40 -20 -2 40 -20.7059 
-4 40 -20.3394 -4.62067 40 -20 0 40.9772 -20 
-2 41.3241 -20 -4 40.5997 -20 32 -6.19708 -18 
32.1473 -6 -18 30 -7.29385 -18 28 -7.40028 -18 
26 -7.40028 -18 24 -7.40028 -18 22 -7.31585 -18 
20 -6 -19.4494 20 -7.10789 -18 18 -6 -19 
18 -6.89211 -18 16 -6 -18.8734 16 -6.68415 -18 
14 -6 -18.8267 14 -6.59972 -18 12.208 -6 -18 
-12 -6 -18.3447 -12 -6.2588 -18 -11.6132 -6 -18 
-14 -6 -18.8267 -14 -6.59972 -18 -16 -6 -18.8267 
-16 -6.59972 -18 -18 -6 -18.8267 -18 -6.59972 -18 
-20 -6 -18.8267 -20 -6.59972 -18 -22 -6 -18.776 
-22 -6.55635 -18 -23.4575 -6 -18 32.2835 -4 -18 
12 -5.86448 -18 11.116 -4 -18 -11.0128 -4 -18 
-24 -5.45753 -18 -24.5563 -4 -18 32 -3.5315 -18 
32 -2 -19.4508 30.8207 -2 -18 11.3328 -2 -18 
-11.7165 -2 -18 -25 -2 -18 30 -1.29341 -18 
28.2944 0 -18 12 0 -19.2341 12.6235 0 -18 
12 -0.858345 -18 -12 -1.62978 -18 -13.5611 0 -18 
-26 0 -19.7514 -25.5548 0 -18 28 0.221436 -18 
26 1.2474 -18 26 2 -19.1772 24.7535 2 -18 
14 2 -18.0346 14.0197 2 -18 14 1.98306 -18 
-14 0.421127 -18 -16 1.89113 -18 -16 2 -18.1739 
-16.3331 2 -18 -24.1971 2 -18 24 2.4141 -18 
22 2.91407 -18 20 3 -18 18 3 -18 
16 2.88395 -18 -18 2.41256 -18 -20 2.45159 -18 
-22 2.55635 -18 -24 2.1421 -18 34 6 -18.5677 
34 5.7412 -18 34.2684 6 -18 32 6 -18.6207 
32 5.66056 -18 31.4622 6 -18 34 8 -19.872 
35 8 -18 30 6.88254 -18 28 8 -18.7135 
28 7.66056 -18 27.2179 8 -18 34 10 -19.2407 
35.1157 10 -18 26 10 -19.8335 26 8.77769 -18 
25.2471 10 -18 34 12 -19 35.1733 12 -18 
25 12 -18 34 14 -18.6235 34.8166 14 -18 
26 14 -19.3481 25.4259 14 -18 34 15.0633 -18 
32 16 -18.6235 33.0633 16 -18 30 16 -18.6785 
28.668 16 -18 28 15.7165 -18 26 14.7091 -18 
32 16.6785 -18 30 16.6235 -18 8 36 -18.2588 
8 35.2428 -18 8.26842 36 -18 6 36 -18.7059 
6 34.6759 -18 4 36 -18.5997 4 35.1376 -18 
2 36 -18.2298 2 35.7317 -18 1.62622 36 -18 
8 38 -18.3984 8.39838 38 -18 6 38 -18.9141 
4 38 -18.8049 2 38 -19.0891 0 36.8747 -18 
0 38 -19.9815 -2 37.2942 -18 -4 37.4436 -18 
-5.58626 38 -18 8 40 -18.0774 8.07739 40 -18 
6 40 -18.5997 4 40 -18.1211 2 40 -18.86 
-6 38.3468 -18 -6 40 -18.9818 -6.81158 40 -18 
8 40.1969 -18 6.48726 42 -18 6 42 -18.205 
5.44081 42 -18 4 40.3657 -18 2 41.4667 -18 
0 42 -19.3667 1.5695 42 -18 -2 42 -19.5792 
-4 42 -19.2941 -6 42 -18.6841 -6.87337 42 -18 
6 42.7608 -18 0 43.4239 -18 -1 44 -18 
-2 44 -18.4208 -4 44 -18.5997 -6 44 -18.205 
-6.31235 44 -18 -2 44.641 -18 -4 45 -18 
-6 44.3984 -18 30 -8 -17 30 -8.87337 -16 
31.3804 -8 -16 28 -8 -17.1733 28 -9 -16 
26 -8 -17.1733 26 -9 -16 24 -8 -17.1733 
24 -9 -16 22 -8 -17.1266 22 -9 -16 
20 -8 -17 20 -8.89211 -16 18 -8 -16.5506 
18 -8.42082 -16 17.087 -8 -16 32 -6 -17.5613 
31.4724 -6 -16 16 -7.53616 -16 14 -7.08593 -16 
12 -6 -17.6669 12 -6.39838 -16 11.6016 -6 -16 
-12 -6.41256 -16 -11.5423 -6 -16 -14 -6.97314 -16 
-16 -7 -16 -18 -6.97314 -16 -20 -6.90916 -16 
-22 -6.68871 -16 -23.2079 -6 -16 32 -4 -17.6127 
30.7526 -4 -16 11.0859 -4 -16 -11.4531 -4 -16 
-24 -4 -16.9662 -23.2929 -4 -16 30 -2.95039 -16 
30 -2 -17 29.1994 -2 -16 11.8527 -2 -16 
-12 -3.11512 -16 -12 -2 -17.4306 -12.8487 -2 -16 
-24 -2 -16.7071 -23.0863 -2 -16 28 -1.03367 -16 
28 0 -17.6707 26 -0.283524 -16 26 0 -16.3873 
25.4306 0 -16 14 0 -16.2807 14.2807 0 -16 
14 -0.238922 -16 12 -1.83347 -16 -14 -1 -16 
-14 0 -17.4673 -16 -0.451591 -16 -16 0 -16.505 
-18 -0.505013 -16 -18 0 -16.4516 -20 -0.430496 -16 
-20 0 -16.2835 -21.1637 0 -16 -24 0 -16.3063 
-22.8938 0 -16 24 0.869186 -16 24 2 -17.3655 
22.2566 2 -16 16 2 -16.0197 16.0346 2 -16 
16 1.98306 -16 -18 2 -17.6016 -20 2 -17.5131 
-22 0.312347 -16 -22 2 -17.2909 -24 2 -17.8029 
22 2.14726 -16 20 2.57413 -16 18 2.61723 -16 
34 5.60162 -16 34.3984 6 -16 32 5.44365 -16 
31.2617 6 -16 -14 6 -16.3984 -14 5.58744 -16 
-12.3331 6 -16 -15.6669 6 -16 35.4259 8 -16 
30 7.14003 -16 28 8 -17 28.6207 8 -16 
16 8 -16.205 16 7.68765 -16 16.3738 8 -16 
14 8 -16.5997 14 7.17329 -16 12 8 -16.205 
12 7.68765 -16 11.6016 8 -16 -12 8 -16.205 
-12 6.55364 -16 -11.6016 8 -16 -14 8 -16.5997 
-16 6.55364 -16 -16 8 -16.205 -16.3123 8 -16 
36 10 -17.0395 36 8.81107 -16 37.8383 10 -16 
28 8.33944 -16 26 9.29089 -16 25.4259 10 -16 
16 10 -16.205 16.3738 10 -16 14 10 -16.5997 
12 10 -16.205 11.6016 10 -16 -12 8.31235 -16 
-14 8.82671 -16 -16 8.31235 -16 38 12 -16.5997 
38 10.208 -16 38.8267 12 -16 36 12 -17.4003 
[...]
POINT_DATA 6698
SCALARS scalars unsigned_short
LOOKUP_TABLE default
1 1 1 1 1 1 1 1 1 
1 1 1 1 1 1 1 1 1 
1 1 1 1 1 1 1 1 1 
1 1 1 1 1 1 1 1 1 
1 1 1 1 1 1 1 1 1 
1 1 1 1 1 1 1 1 1 
1 1 1 1 1 1 1 1 1 
1 1 1 1 1 1 1 1 1 
1 1 1 1 1 1 1 1 1 
1 1 1 1 1 1 1 1 1 
1 1 1 1 1 1 1 1 1 
1 1 1 1 1 1 1 1 1 
1 1 1 1 1 1 1 1 1 
1 1 1 1 1 1 1 1 1 
1 1 1 1 1 1 1 1 1 
1 1 1 1 1 1 1 1 1 
1 1 1 1 1 1 1 1 1 
1 1 1 1 1 1 1 1 1 
1 1 1 1 1 1 1 1 1 
1 1 1 1 1 1 1 1 1 
1 1 1 1 1 1 1 1 1 
1 1 1 1 1 1 1 1 1 
1 1 1 1 1 1 1 1 1 
1 1 1 1 1 1 1 1 1 
1 1 1 1 1 1 1 1 1 
1 1 1 1 1 1 1 1 1 
1 1 1 1 1 1 1 1 1 
1 1 1 1 1 1 1 1 1 
1 1 1 1 1 1 1 1 1 
1 1 1 1 1 1 1 1 1 
1 1 1 1 1 1 1 1 1 
1 1 1 1 1 1 1 1 1 
1 1 1 1 1 1 1 1 1 
1 1 1 1 1 1 1 1 1 
1 1 1 1 1 1 1 1 1 
1 1 1 1 1 1 1 1 1 
1 1 1 1 1 1 1 1 1 
1 1 1 1 1 1 1 1 1 
1 1 1 1 1 1 1 1 1 
1 1 1 1 1 1 1 1 1 
1 1 1 1 1 1 1 1 1 
1 1 1 1 1 1 1 1 1 
1 1 1 1 1 1 1 1 1 
1 1 1 1 1 1 1 1 1 
1 1 1 1 1 1 1 1 1 
1 1 1 1 1 1 1 1 1 
1 1 1 1 1 1 1 1 1 
1 1 1 1 1 1 1 1 1 
1 1 1 1 1 1 1 1 1 
1 1 1 1 1 1 1 1 1 
1 1 1 1 1 1 1 1 1 
1 1 1 1 1 1 1 1 1 
1 1 1 1 1 1 1 1 1 
1 1 1 1 1 1 1 1 1 
1 1 1 1 1 1 1 1 1 
1 1 1 1 1 1 1 1 1 
1 1 1 1 1 1 1 1 1 
1 1 1 1 1 1 1 1 1 
1 1 1 1 1 1 1 1 1 
1 1 1 1 1 1 1 1 1 
1 1 1 1 1 1 1 1 1 
1 1 1 1 1 1 1 1 1 
1 1 1 1 1 1 1 1 1 
1 1 1 1 1 1 1 1 1 
1 1 1 1 1 1 1 1 1 
1 1 1 1 1 1 1 1 1 
1 1 1 1 1 1 1 1 1 
1 1 1 1 1 1 1 1 1 
1 1 1 1 1 1 1 1 1 
1 1 1 1 1 1 1 1 1 
1 1 1 1 1 1 1 1 1 
1 1 1 1 1 1 1 1 1 
1 1 1 1 1 1 1 1 1 
1 1 1 1 1 1 1 1 1 
1 1 1 1 1 1 1 1 1 
1 1 1 1 1 1 1 1 1 
1 1 1 1 1 1 1 1 1 
1 1 1 1 1 1 1 1 1 
1 1 1 1 1 1 1 1 1 
1 1 1 1 1 1 1 1 1 
1 1 1 1 1 1 1 1 1 
1 1 1 1 1 1 1 1 1 
1 1 1 1 1 1 1 1 1 
1 1 1 1 1 1 1 1 1 
1 1 1 1 1 1 1 1 1 
1 1 1 1 1 1 1 1 1 
1 1 1 1 1 1 1 1 1 
1 1 1 1 1 1 1 1 1 
1 1 1 1 1 1 1 1 1 
1 1 1 1 1 1 1 1 1 
1 1 1 1 1 1 1 1 1 
1 1 1 1 1 1 1 1 1 
1 1 1 1 1 1 1 1 1 
1 1 1 1 1 1 1 1 1 
1 1 1 1 1 1 1 1 1 
1 1 1 1 1 1 1 1 1 
1 1 1 1 1 1 1 1 1 
1 1 1 1 1 1 1 1 1 
1 1 1 1 1 1 1 1 1 
1 1 1 1 1 1 1 1 1 
1 1 1 1 1 1 1 1 1 
1 1 1 1 1 1 1 1 1 
1 1 1 1 1 1 1 1 1 
1 1 1 1 1 1 1 1 1 
1 1 1 1 1 1 1 1 1 
1 1 1 1 1 1 1 1 1 
1 1 1 1 1 1 1 1 1 
1 1 1 1 1 1 1 1 1 
1 1 1 1 1 1 1 1 1 
1 1 1 1 1 1 1 1 1 
1 1 1 1 1 1 1 1 1 
1 1 1 1 1 1 1 1 1 
1 1 1 1 1 1 1 1 1 
1 1 1 1 1 1 1 1 1 
1 1 1 1 1 1 1 1 1 
1 1 1 1 1 1 1 1 1 
1 1 1 1 1 1 1 1 1 
1 1 1 1 1 1 1 1 1 
1 1 1 1 1 1 1 1 1 
1 1 1 1 1 1 1 1 1 
1 1 1 1 1 1 1 1 1 
1 1 1 1 1 1 1 1 1 
1 1 1 1 1 1 1 1 1 
1 1 1 1 1 1 1 1 1 
1 1 1 1 1 1 1 1 1 
1 1 1 1 1 1 1 1 1 
1 1 1 1 1 1 1 1 1 
1 1 1 1 1 1 1 1 1 
1 1 1 1 1 1 1 1 1 
1 1 1 1 1 1 1 1 1 
1 1 1 1 1 1 1 1 1 
1 1 1 1 1 1 1 1 1 
1 1 1 1 1 1 1 1 1 
1 1 1 1 1 1 1 1 1 
1 1 1 1 1 1 1 1 1 
1 1 1 1 1 1 1 1 1 
1 1 1 1 1 1 1 1 1 
1 1 1 1 1 1 1 1 1 
1 1 1 1 1 1 1 1 1 
1 1 1 1 1 1 1 1 1 
1 1 1 1 1 1 1 1 1 
1 1 1 1 1 1 1 1 1 
1 1 1 1 1 1 1 1 1 
1 1 1 1 1 1 1 1 1 
1 1 1 1 1 1 1 1 1 
1 1 1 1 1 1 1 1 1 
1 1 1 1 1 1 1 1 1 
1 1 1 1 1 1 1 1 1 
1 1 1 1 1 1 1 1 1 
1 1 1 1 1 1 1 1 1 
1 1 1 1 1 1 1 1 1 
1 1 1 1 1 1 1 1 1 
1 1 1 1 1 1 1 1 1 
1 1 1 1 1 1 1 1 1 
1 1 1 1 1 1 1 1 1 
1 1 1 1 1 1 1 1 1 
1 1 1 1 1 1 1 1 1 
1 1 1 1 1 1 1 1 1 
1 1 1 1 1 1 1 1 1 
1 1 1 1 1 1 1 1 1 
1 1 1 1 1 1 1 1 1 
1 1 1 1 1 1 1 1 1 
1 1 1 1 1 1 1 1 1 
1 1 1 1 1 1 1 1 1 
1 1 1 1 1 1 1 1 1 
1 1 1 1 1 1 1 1 1 
1 1 1 1 1 1 1 1 1 
1 1 1 1 1 1 1 1 1 
1 1 1 1 1 1 1 1 1 
1 1 1 1 1 1 1 1 1 
1 1 1 1 1 1 1 1 1 
1 1 1 1 1 1 1 1 1 
1 1 1 1 1 1 1 1 1 
1 1 1 1 1 1 1 1 1 
1 1 1 1 1 1 1 1 1 
1 1 1 1 1 1 1 1 1 
1 1 1 1 1 1 1 1 1 
1 1 1 1 1 1 1 1 1 
1 1 1 1 1 1 1 1 1 
1 1 1 1 1 1 1 1 1 
1 1 1 1 1 1 1 1 1 
1 1 1 1 1 1 1 1 1 
1 1 1 1 1 1 1 1 1 
1 1 1 1 1 1 1 1 1 
1 1 1 1 1 1 1 1 1 
1 1 1 1 1 1 1 1 1 
1 1 1 1 1 1 1 1 1 
1 1 1 1 1 1 1 1 1 
1 1 1 1 1 1 1 1 1 
1 1 1 1 1 1 1 1 1 
1 1 1 1 1 1 1 1 1 
1 1 1 1 1 1 1 1 1 
1 1 1 1 1 1 1 1 1 
1 1 1 1 1 1 1 1 1 
1 1 1 1 1 1 1 1 1 
1 1 1 1 1 1 1 1 1 
1 1 1 1 1 1 1 1 1 
1 1 1 1 1 1 1 1 1 
1 1 1 1 1 1 1 1 1 
1 1 1 1 1 1 1 1 1 
1 1 1 1 1 1 1 1 1 
1 1 1 1 1 1 1 1 1 
1 1 1 1 1 1 1 1 1 
1 1 1 1 1 1 1 1 1 
1 1 1 1 1 1 1 1 1 
1 1 1 1 1 1 1 1 1 
1 1 1 1 1 1 1 1 1 
1 1 1 1 1 1 1 1 1 
1 1 1 1 1 1 1 1 1 
1 1 1 1 1 1 1 1 1 
1 1 1 1 1 1 1 1 1 
1 1 1 1 1 1 1 1 1 
1 1 1 1 1 1 1 1 1 
1 1 1 1 1 1 1 1 1 
1 1 1 1 1 1 1 1 1 
1 1 1 1 1 1 1 1 1 
1 1 1 1 1 1 1 1 1 
1 1 1 1 1 1 1 1 1 
1 1 1 1 1 1 1 1 1 
1 1 1 1 1 1 1 1 1 
1 1 1 1 1 1 1 1 1 
1 1 1 1 1 1 1 1 1 
1 1 1 1 1 1 1 1 1 
1 1 1 1 1 1 1 1 1 
1 1 1 1 1 1 1 1 1 
1 1 1 1 1 1 1 1 1 
1 1 1 1 1 1 1 1 1 
1 1 1 1 1 1 1 1 1 
1 1 1 1 1 1 1 1 1 
1 1 1 1 1 1 1 1 1 
1 1 1 1 1 1 1 1 1 
1 1 1 1 1 1 1 1 1 
1 1 1 1 1 1 1 1 1 
1 1 1 1 1 1 1 1 1 
1 1 1 1 1 1 1 1 1 
1 1 1 1 1 1 1 1 1 
1 1 1 1 1 1 1 1 1 
1 1 1 1 1 1 1 1 1 
1 1 1 1 1 1 1 1 1 
1 1 1 1 1 1 1 1 1 
1 1 1 1 1 1 1 1 1 
1 1 1 1 1 1 1 1 1 
1 1 1 1 1 1 1 1 1 
1 1 1 1 1 1 1 1 1 
1 1 1 1 1 1 1 1 1 
1 1 1 1 1 1 1 1 1 
1 1 1 1 1 1 1 1 1 
1 1 1 1 1 1 1 1 1 
1 1 1 1 1 1 1 1 1 
1 1 1 1 1 1 1 1 1 
1 1 1 1 1 1 1 1 1 
1 1 1 1 1 1 1 1 1 
1 1 1 1 1 1 1 1 1 
1 1 1 1 1 1 1 1 1 
1 1 1 1 1 1 1 1 1 
1 1 1 1 1 1 1 1 1 
1 1 1 1 1 1 1 1 1 
1 1 1 1 1 1 1 1 1 
1 1 1 1 1 1 1 1 1 
1 1 1 1 1 1 1 1 1 
1 1 1 1 1 1 1 1 1 
1 1 1 1 1 1 1 1 1 
1 1 1 1 1 1 1 1 1 
1 1 1 1 1 1 1 1 1 
1 1 1 1 1 1 1 1 1 
1 1 1 1 1 1 1 1 1 
1 1 1 1 1 1 1 1 1 
1 1 1 1 1 1 1 1 1 
1 1 1 1 1 1 1 1 1 
1 1 1 1 1 1 1 1 1 
1 1 1 1 1 1 1 1 1 
1 1 1 1 1 1 1 1 1 
1 1 1 1 1 1 1 1 1 
1 1 1 1 1 1 1 1 1 
1 1 1 1 1 1 1 1 1 
1 1 1 1 1 1 1 1 1 
1 1 1 1 1 1 1 1 1 
1 1 1 1 1 1 1 1 1 
1 1 1 1 1 1 1 1 1 
1 1 1 1 1 1 1 1 1 
1 1 1 1 1 1 1 1 1 
1 1 1 1 1 1 1 1 1 
1 1 1 1 1 1 1 1 1 
1 1 1 1 1 1 1 1 1 
1 1 1 1 1 1 1 1 1 
1 1 1 1 1 1 1 1 1 
1 1 1 1 1 1 1 1 1 
1 1 1 1 1 1 1 1 1 
1 1 1 1 1 1 1 1 1 
1 1 1 1 1 1 1 1 1 
1 1 1 1 1 1 1 1 1 
1 1 1 1 1 1 1 1 1 
1 1 1 1 1 1 1 1 1 
1 1 1 1 1 1 1 1 1 
1 1 1 1 1 1 1 1 1 
1 1 1 1 1 1 1 1 1 
1 1 1 1 1 1 1 1 1 
1 1 1 1 1 1 1 1 1 
1 1 1 1 1 1 1 1 1 
1 1 1 1 1 1 1 1 1 
1 1 1 1 1 1 1 1 1 
1 1 1 1 1 1 1 1 1 
1 1 1 1 1 1 1 1 1 
1 1 1 1 1 1 1 1 1 
1 1 1 1 1 1 1 1 1 
1 1 1 1 1 1 1 1 1 
1 1 1 1 1 1 1 1 1 
1 1 1 1 1 1 1 1 1 
1 1 1 1 1 1 1 1 1 
1 1 1 1 1 1 1 1 1 
1 1 1 1 1 1 1 1 1 
1 1 1 1 1 1 1 1 1 
1 1 1 1 1 1 1 1 1 
1 1 1 1 1 1 1 1 1 
1 1 1 1 1 1 1 1 1 
1 1 1 1 1 1 1 1 1 
1 1 1 1 1 1 1 1 1 
1 1 1 1 1 1 1 1 1 
1 1 1 1 1 1 1 1 1 
1 1 1 1 1 1 1 1 1 
1 1 1 1 1 1 1 1 1 
1 1 1 1 1 1 1 1 1 
1 1 1 1 1 1 1 1 1 
1 1 1 1 1 1 1 1 1 
1 1 1 1 1 1 1 1 1 
1 1 1 1 1 1 1 1 1 
1 1 1 1 1 1 1 1 1 
1 1 1 1 1 1 1 1 1 
1 1 1 1 1 1 1 1 1 
1 1 1 1 1 1 1 1 1 
1 1 1 1 1 1 1 1 1 
1 1 1 1 1 1 1 1 1 
1 1 1 1 1 1 1 1 1 
1 1 1 1 1 1 1 1 1 
1 1 1 1 1 1 1 1 1 
1 1 1 1 1 1 1 1 1 
1 1 1 1 1 1 1 1 1 
1 1 1 1 1 1 1 1 1 
1 1 1 1 1 1 1 1 1 
1 1 1 1 1 1 1 1 1 
1 1 1 1 1 1 1 1 1 
1 1 1 1 1 1 1 1 1 
1 1 1 1 1 1 1 1 1 
1 1 1 1 1 1 1 1 1 
1 1 1 1 1 1 1 1 1 
1 1 1 1 1 1 1 1 1 
1 1 1 1 1 1 1 1 1 
1 1 1 1 1 1 1 1 1 
1 1 1 1 1 1 1 1 1 
1 1 1 1 1 1 1 1 1 
1 1 1 1 1 1 1 1 1 
1 1 1 1 1 1 1 1 1 
1 1 1 1 1 1 1 1 1 
1 1 1 1 1 1 1 1 1 
1 1 1 1 1 1 1 1 1 
1 1 1 1 1 1 1 1 1 
1 1 1 1 1 1 1 1 1 
1 1 1 1 1 1 1 1 1 
1 1 1 1 1 1 1 1 1 
1 1 1 1 1 1 1 1 1 
1 1 1 1 1 1 1 1 1 
1 1 1 1 1 1 1 1 1 
1 1 1 1 1 1 1 1 1 
1 1 1 1 1 1 1 1 1 
1 1 1 1 1 1 1 1 1 
1 1 1 1 1 1 1 1 1 
1 1 1 1 1 1 1 1 1 
1 1 1 1 1 1 1 1 1 
1 1 1 1 1 1 1 1 1 
1 1 1 1 1 1 1 1 1 
1 1 1 1 1 1 1 1 1 
1 1 1 1 1 1 1 1 1 
1 1 1 1 1 1 1 1 1 
1 1 1 1 1 1 1 1 1 
1 1 1 1 1 1 1 1 1 
1 1 1 1 1 1 1 1 1 
1 1 1 1 1 1 1 1 1 
1 1 1 1 1 1 1 1 1 
1 1 1 1 1 1 1 1 1 
1 1 1 1 1 1 1 1 1 
1 1 1 1 1 1 1 1 1 
1 1 1 1 1 1 1 1 1 
1 1 1 1 1 1 1 1 1 
1 1 1 1 1 1 1 1 1 
1 1 1 1 1 1 1 1 1 
1 1 1 1 1 1 1 1 1 
1 1 1 1 1 1 1 1 1 
1 1 1 1 1 1 1 1 1 
1 1 1 1 1 1 1 1 1 
1 1 1 1 1 1 1 1 1 
1 1 1 1 1 1 1 1 1 
1 1 1 1 1 1 1 1 1 
1 1 1 1 1 1 1 1 1 
1 1 1 1 1 1 1 1 1 
1 1 1 1 1 1 1 1 1 
1 1 1 1 1 1 1 1 1 
1 1 1 1 1 1 1 1 1 
1 1 1 1 1 1 1 1 1 
1 1 1 1 1 1 1 1 1 
1 1 1 1 1 1 1 1 1 
1 1 1 1 1 1 1 1 1 
1 1 1 1 1 1 1 1 1 
1 1 1 1 1 1 1 1 1 
1 1 1 1 1 1 1 1 1 
1 1 1 1 1 1 1 1 1 
1 1 1 1 1 1 1 1 1 
1 1 1 1 1 1 1 1 1 
1 1 1 1 1 1 1 1 1 
1 1 1 1 1 1 1 1 1 
1 1 1 1 1 1 1 1 1 
1 1 1 1 1 1 1 1 1 
1 1 1 1 1 1 1 1 1 
1 1 1 1 1 1 1 1 1 
1 1 1 1 1 1 1 1 1 
1 1 1 1 1 1 1 1 1 
1 1 1 1 1 1 1 1 1 
1 1 1 1 1 1 1 1 1 
1 1 1 1 1 1 1 1 1 
1 1 1 1 1 1 1 1 1 
1 1 1 1 1 1 1 1 1 
1 1 1 1 1 1 1 1 1 
1 1 1 1 1 1 1 1 1 
1 1 1 1 1 1 1 1 1 
1 1 1 1 1 1 1 1 1 
1 1 1 1 1 1 1 1 1 
1 1 1 1 1 1 1 1 1 
1 1 1 1 1 1 1 1 1 
1 1 1 1 1 1 1 1 1 
1 1 1 1 1 1 1 1 1 
1 1 1 1 1 1 1 1 1 
1 1 1 1 1 1 1 1 1 
1 1 1 1 1 1 1 1 1 
1 1 1 1 1 1 1 1 1 
1 1 1 1 1 1 1 1 1 
1 1 1 1 1 1 1 1 1 
1 1 1 1 1 1 1 1 1 
1 1 1 1 1 1 1 1 1 
1 1 1 1 1 1 1 1 1 
1 1 1 1 1 1 1 1 1 
1 1 1 1 1 1 1 1 1 
1 1 1 1 1 1 1 1 1 
1 1 1 1 1 1 1 1 1 
1 1 1 1 1 1 1 1 1 
1 1 1 1 1 1 1 1 1 
1 1 1 1 1 1 1 1 1 
1 1 1 1 1 1 1 1 1 
1 1 1 1 1 1 1 1 1 
1 1 1 1 1 1 1 1 1 
1 1 1 1 1 1 1 1 1 
1 1 1 1 1 1 1 1 1 
1 1 1 1 1 1 1 1 1 
1 1 1 1 1 1 1 1 1 
1 1 1 1 1 1 1 1 1 
1 1 1 1 1 1 1 1 1 
1 1 1 1 1 1 1 1 1 
1 1 1 1 1 1 1 1 1 
1 1 1 1 1 1 1 1 1 
1 1 1 1 1 1 1 1 1 
1 1 1 1 1 1 1 1 1 
1 1 1 1 1 1 1 1 1 
1 1 1 1 1 1 1 1 1 
1 1 1 1 1 1 1 1 1 
1 1 1 1 1 1 1 1 1 
1 1 1 1 1 1 1 1 1 
1 1 1 1 1 1 1 1 1 
1 1 1 1 1 1 1 1 1 
1 1 1 1 1 1 1 1 1 
1 1 1 1 1 1 1 1 1 
1 1 1 1 1 1 1 1 1 
1 1 1 1 1 1 1 1 1 
1 1 1 1 1 1 1 1 1 
1 1 1 1 1 1 1 1 1 
1 1 1 1 1 1 1 1 1 
1 1 1 1 1 1 1 1 1 
1 1 1 1 1 1 1 1 1 
1 1 1 1 1 1 1 1 1 
1 1 1 1 1 1 1 1 1 
1 1 1 1 1 1 1 1 1 
1 1 1 1 1 1 1 1 1 
1 1 1 1 1 1 1 1 1 
1 1 1 1 1 1 1 1 1 
1 1 1 1 1 1 1 1 1 
1 1 1 1 1 1 1 1 1 
1 1 1 1 1 1 1 1 1 
1 1 1 1 1 1 1 1 1 
1 1 1 1 1 1 1 1 1 
1 1 1 1 1 1 1 1 1 
1 1 1 1 1 1 1 1 1 
1 1 1 1 1 1 1 1 1 
1 1 1 1 1 1 1 1 1 
1 1 1 1 1 1 1 1 1 
1 1 1 1 1 1 1 1 1 
1 1 1 1 1 1 1 1 1 
1 1 1 1 1 1 1 1 1 
1 1 1 1 1 1 1 1 1 
1 1 1 1 1 1 1 1 1 
1 1 1 1 1 1 1 1 1 
1 1 1 1 1 1 1 1 1 
1 1 1 1 1 1 1 1 1 
1 1 1 1 1 1 1 1 1 
1 1 1 1 1 1 1 1 1 
1 1 1 1 1 1 1 1 1 
1 1 1 1 1 1 1 1 1 
1 1 1 1 1 1 1 1 1 
1 1 1 1 1 1 1 1 1 
1 1 1 1 1 1 1 1 1 
1 1 1 1 1 1 1 1 1 
1 1 1 1 1 1 1 1 1 
1 1 1 1 1 1 1 1 1 
1 1 1 1 1 1 1 1 1 
1 1 1 1 1 1 1 1 1 
1 1 1 1 1 1 1 1 1 
1 1 1 1 1 1 1 1 1 
1 1 1 1 1 1 1 1 1 
1 1 1 1 1 1 1 1 1 
1 1 1 1 1 1 1 1 1 
1 1 1 1 1 1 1 1 1 
1 1 1 1 1 1 1 1 1 
1 1 1 1 1 1 1 1 1 
1 1 1 1 1 1 1 1 1 
1 1 1 1 1 1 1 1 1 
1 1 1 1 1 1 1 1 1 
1 1 1 1 1 1 1 1 1 
1 1 1 1 1 1 1 1 1 
1 1 1 1 1 1 1 1 1 
1 1 1 1 1 1 1 1 1 
1 1 1 1 1 1 1 1 1 
1 1 1 1 1 1 1 1 1 
1 1 1 1 1 1 1 1 1 
1 1 1 1 1 1 1 1 1 
1 1 1 1 1 1 1 1 1 
1 1 1 1 1 1 1 1 1 
1 1 1 1 1 1 1 1 1 
1 1 1 1 1 1 1 1 1 
1 1 1 1 1 1 1 1 1 
1 1 1 1 1 1 1 1 1 
1 1 1 1 1 1 1 1 1 
1 1 1 1 1 1 1 1 1 
1 1 1 1 1 1 1 1 1 
1 1 1 1 1 1 1 1 1 
1 1 1 1 1 1 1 1 1 
1 1 1 1 1 1 1 1 1 
1 1 1 1 1 1 1 1 1 
1 1 1 1 1 1 1 1 1 
1 1 1 1 1 1 1 1 1 
1 1 1 1 1 1 1 1 1 
1 1 1 1 1 1 1 1 1 
1 1 1 1 1 1 1 1 1 
1 1 1 1 1 1 1 1 1 
1 1 1 1 1 1 1 1 1 
1 1 1 1 1 1 1 1 1 
1 1 1 1 1 1 1 1 1 
1 1 1 1 1 1 1 1 1 
1 1 1 1 1 1 1 1 1 
1 1 1 1 1 1 1 1 1 
1 1 1 1 1 1 1 1 1 
1 1 1 1 1 1 1 1 1 
1 1 1 1 1 1 1 1 1 
1 1 1 1 1 1 1 1 1 
1 1 1 1 1 1 1 1 1 
1 1 1 1 1 1 1 1 1 
1 1 1 1 1 1 1 1 1 
1 1 1 1 1 1 1 1 1 
1 1 1 1 1 1 1 1 1 
1 1 1 1 1 1 1 1 1 
1 1 1 1 1 1 1 1 1 
1 1 1 1 1 1 1 1 1 
1 1 1 1 1 1 1 1 1 
1 1 1 1 1 1 1 1 1 
1 1 1 1 1 1 1 1 1 
1 1 1 1 1 1 1 1 1 
1 1 1 1 1 1 1 1 1 
1 1 1 1 1 1 1 1 1 
1 1 1 1 1 1 1 1 1 
1 1 1 1 1 1 1 1 1 
1 1 1 1 1 1 1 1 1 
1 1 1 1 1 1 1 1 1 
1 1 1 1 1 1 1 1 1 
1 1 1 1 1 1 1 1 1 
1 1 1 1 1 1 1 1 1 
1 1 1 1 1 1 1 1 1 
1 1 1 1 1 1 1 1 1 
1 1 1 1 1 1 1 1 1 
1 1 1 1 1 1 1 1 1 
1 1 1 1 1 1 1 1 1 
1 1 1 1 1 1 1 1 1 
1 1 1 1 1 1 1 1 1 
1 1 1 1 1 1 1 1 1 
1 1 1 1 1 1 1 1 1 
1 1 1 1 1 1 1 1 1 
1 1 1 1 1 1 1 1 1 
1 1 1 1 1 1 1 1 1 
1 1 1 1 1 1 1 1 1 
1 1 1 1 1 1 1 1 1 
1 1 1 1 1 1 1 1 1 
1 1 1 1 1 1 1 1 1 
1 1 1 1 1 1 1 1 1 
1 1 1 1 1 1 1 1 1 
1 1 1 1 1 1 1 1 1 
1 1 1 1 1 1 1 1 1 
1 1 1 1 1 1 1 1 1 
1 1 1 1 1 1 1 1 1 
1 1 1 1 1 1 1 1 1 
1 1 1 1 1 1 1 1 1 
1 1 1 1 1 1 1 1 1 
1 1 1 1 1 1 1 1 1 
1 1 1 1 1 1 1 1 1 
1 1 1 1 1 1 1 1 1 
1 1 1 1 1 1 1 1 1 
1 1 1 1 1 1 1 1 1 
1 1 1 1 1 1 1 1 1 
1 1 1 1 1 1 1 1 1 
1 1 1 1 1 1 1 1 1 
1 1 1 1 1 1 1 1 1 
1 1 1 1 1 1 1 1 1 
1 1 1 1 1 1 1 1 1 
1 1 1 1 1 1 1 1 1 
1 1 1 1 1 1 1 1 1 
1 1 1 1 1 1 1 1 1 
1 1 1 1 1 1 1 1 1 
1 1 1 1 1 1 1 1 1 
1 1 1 1 1 1 1 1 1 
1 1 1 1 1 1 1 1 1 
1 1 1 1 1 1 1 1 1 
1 1 1 1 1 1 1 1 1 
1 1 1 1 1 1 1 1 1 
1 1 1 1 1 1 1 1 1 
1 1 1 1 1 1 1 1 1 
1 1 1 1 1 1 1 1 1 
1 1 1 1 1 1 1 1 1 
1 1 1 1 1 1 1 1 1 
1 1 1 1 1 1 1 1 1 
1 1 1 1 1 1 1 1 1 
1 1 1 1 1 1 1 1 1 
1 1 1 1 1 1 1 1 1 
1 1 1 1 1 1 1 1 1 
1 1 1 1 1 1 1 1 1 
1 1 1 1 1 1 1 1 1 
1 1 1 1 1 1 1 1 1 
1 1 1 1 1 1 1 1 1 
1 1 1 1 1 1 1 1 1 
1 1 1 1 1 1 1 1 1 
1 1 1 1 1 1 1 1 1 
1 1 1 1 1 1 1 1 1 
1 1 1 1 1 1 1 1 1 
1 1 1 1 1 1 1 1 1 
1 1 1 1 1 1 1 1 1 
1 1 1 1 1 1 1 1 1 
1 1 1 1 1 1 1 1 1 
1 1 1 1 1 1 1 1 1 
1 1 1 1 1 1 1 1 1 
1 1 1 1 1 1 1 1 1 
1 1 1 1 1 1 1 1 1 
1 1 1 1 1 1 1 1 1 
1 1 1 1 1 1 1 1 1 
1 1 1 1 1 1 1 1 1 
1 1 1 1 1 1 1 1 1 
1 1 1 1 1 1 1 1 1 
1 1 1 1 1 1 1 1 1 
1 1 1 1 1 1 1 1 1 
1 1 1 1 1 1 1 1 1 
1 1 1 1 1 1 1 1 1 
1 1 1 1 1 1 1 1 1 
1 1 1 1 1 1 1 1 1 
1 1 1 1 1 1 1 1 1 
1 1 1 1 1 1 1 1 1 
1 1 1 1 1 1 1 1 1 
1 1 1 1 1 1 1 1 1 
1 1 1 1 1 1 1 1 1 
1 1 1 1 1 1 1 1 1 
1 1 1 1 1 1 1 1 1 
1 1 1 1 1 1 1 1 1 
1 1 1 1 1 1 1 1 1 
1 1 1 1 1 1 1 1 1 
1 1 1 1 1 1 1 1 1 
1 1 1 1 1 1 1 1 1 
1 1 1 1 1 1 1 1 1 
1 1 1 1 1 1 1 1 1 
1 1 1 1 1 1 1 1 1 
1 1 1 1 1 1 1 1 1 
1 1 1 1 1 1 1 1 1 
1 1 1 1 1 1 1 1 1 
1 1 1 1 1 1 1 1 1 
1 1 1 1 1 1 1 1 1 
1 1 1 1 1 1 1 1 1 
1 1 1 1 1 1 1 1 1 
1 1 1 1 1 1 1 1 1 
1 1 1 1 1 1 1 1 1 
1 1 1 1 1 1 1 1 1 
1 1 1 1 1 1 1 1 1 
1 1 1 1 1 1 1 1 1 
1 1 1 1 1 1 1 1 1 
1 1 1 1 1 1 1 1 1 
1 1 1 1 1 1 1 1 1 
1 1 1 1 1 1 1 1 1 
1 1 1 1 1 1 1 1 1 
1 1 1 1 1 1 1 1 1 
1 1 1 1 1 1 1 1 1 
1 1 1 1 1 1 1 1 1 
1 1 1 1 1 1 1 1 1 
1 1 1 1 1 1 1 1 1 
1 1 1 1 1 1 1 1 1 
1 1 1 1 1 1 1 1 1 
1 1 1 1 1 1 1 1 1 
1 1 1 1 1 1 1 1 1 
1 1 1 1 1 1 1 1 1 
1 1 1 1 1 1 1 1 1 
1 1 1 1 1 1 1 1 1 
1 1 1 1 1 1 1 1 1 
1 1 1 1 1 1 1 1 1 
1 1 1 1 1 1 1 1 1 
1 1 1 1 1 1 1 1 1 
1 1 1 1 1 1 1 1 1 
1 1 1 1 1 1 1 1 1 
1 1 1 1 1 1 1 1 1 
1 1 1 1 1 1 1 1 1 
1 1 1 1 1 1 1 1 1 
1 1 1 1 1 1 1 1 1 
1 1 1 1 1 1 1 1 1 
1 1 1 1 1 1 1 1 1 
1 1 1 1 1 1 1 1 1 
1 1 1 1 1 1 1 1 1 
1 1 1 1 1 1 1 1 1 
1 1 1 1 1 1 1 1 1 
1 1 1 1 1 1 1 1 1 
1 1 1 1 1 1 1 1 1 
1 1 1 1 1 1 1 1 1 
1 1 1 1 1 1 1 1 1 
1 1 1 1 1 1 1 1 1 
1 1 1 1 1 1 1 1 1 
1 1 1 1 1 1 1 1 1 
1 1 1 1 1 1 1 1 1 
1 1 1 1 1 1 1 1 1 
1 1 1 1 1 1 1 1 1 
1 1 1 1 1 1 1 1 1 
1 1 1 1 1 1 1 1 1 
1 1 1 1 1 1 1 1 1 
1 1 1 1 1 1 1 1 1 
1 1 1 1 1 1 1 1 1 
1 1 1 1 1 1 1 1 1 
1 1 1 1 1 1 1 1 1 
1 1 1 1 1 1 1 1 1 
1 1 1 1 1 1 1 1 1 
1 1 1 1 1 1 1 1 1 
1 1 
NORMALS normals float
-0.443013 -0.0818019 0.892775 -0.422847 -0.0146925 0.906082 -0.459474 -0.0873409 0.883887 
-0.0858619 0.367989 0.925857 0.0214705 0.548746 0.835713 0.0140994 0.610576 0.791832 
0.03803 0.707571 0.705619 -0 0.625786 0.779995 -0 0.731952 0.681356 
0.118005 0.578696 0.806961 0.114799 0.704599 0.700258 0.354316 0.535964 0.766291 
-0.461818 -0.115845 0.879377 -0.500284 -0.375619 0.780145 -0.429105 -0.297893 0.852719 
-0.139335 -0.0647677 0.988125 0.0652663 -0.0652663 0.995731 0.201455 -0.22001 0.954469 
0.421493 0.304129 0.854312 0.379792 -0.237131 0.894163 0.396415 -0.210248 0.893672 
-0.476472 -0.415063 0.775047 -0.257307 -0.683298 0.683298 -0.237444 -0.679101 0.694581 
0.170174 -0.688897 0.704601 0.182001 -0.695297 0.695297 0.267729 -0.515665 0.813887 
0.366772 -0.301105 0.880235 -0.237444 -0.694581 0.679101 0.170174 -0.704601 0.688897 
-0.579781 0.510157 0.63529 -0.571489 0.535761 0.621579 -0.589164 0.506702 0.629396 
0.00505715 0.76819 0.640203 0.083025 0.912955 0.399524 0.271719 0.852764 0.446052 
-0.769794 -0.287724 0.569765 -0.785793 -0.29677 0.54264 0.305158 0.837599 0.453107 
0.182546 0.886983 0.424191 0.0930689 0.96585 0.241812 0.0670075 0.984968 0.159212 
0.387829 0.544102 0.744004 0.132838 0.954867 0.265675 0.392243 0.625751 0.674227 
0.29286 0.807362 0.512249 0.515317 0.612977 0.598922 -0.301694 0.602085 0.739239 
-0.233948 0.781202 0.578785 -0.453031 0.579773 0.67722 -0.27673 0.4614 0.84293 
-0.120819 0.898963 0.421032 0.107853 0.328073 0.938475 0.159929 0.931775 0.325912 
0.777699 0.464549 0.42353 0.763334 0.557112 0.327027 0.808875 0.487381 0.32891 
-0.780759 -0.343585 0.521885 -0.638433 -0.525234 0.562612 -0.699075 -0.562195 0.44185 
0.428196 -0.0652472 0.901327 0.671921 0.311519 0.671921 0.66975 -0 0.742587 
0.740952 -0 0.671558 -0.581906 -0.0293622 0.812726 -0.550843 0.413341 0.725067 
-0.683448 -0.048229 0.728404 -0.151057 -0.127287 0.980296 -0 -0.4133 0.910595 
0.157328 -0.523019 0.837675 0.658904 -0.39839 0.638068 0.69829 -0.379106 0.607182 
-0.646773 -0.586916 0.487047 -0.461655 -0.73414 0.497909 -0.492358 -0.741069 0.456508 
0.214584 -0.779881 0.587996 0.126 -0.768699 0.627077 0.21598 -0.678874 0.701771 
0.440573 -0.647459 0.621846 0.669786 -0.320585 0.669786 -0.585559 -0.387048 0.71226 
-0.0201615 -0.713888 0.699969 0.0833454 -0.705516 0.703776 0.0989189 -0.713502 0.693636 
0.184128 -0.622528 0.760629 0.196829 -0.635133 0.746904 0.655112 -0.418489 0.629043 
-0.418214 -0.806347 0.418214 -0.136066 -0.964939 0.224451 0.063712 -0.972019 0.226098 
0.107862 -0.916608 0.384961 0.0708169 -0.863272 0.499747 0.191376 -0.782492 0.592522 
0.0834073 -0.720327 0.688601 -0.331309 0.872816 0.358367 -0.741289 0.414049 0.528255 
0.0349112 0.985138 0.168179 0.305883 0.852965 0.42295 0.196183 0.929491 0.312344 
0.342801 0.858717 0.38091 0.364107 0.857235 0.364107 0.369854 0.862876 0.344461 
-0.808872 -0.432077 0.398793 0.312344 0.929491 0.196183 0.0899297 0.988913 0.118172 
-0 0.991849 0.127419 0.117391 0.982377 0.145447 0.591129 0.617393 0.51903 
0.487159 0.820971 0.297796 0.634131 0.622176 0.459102 -0.494189 0.583254 0.644664 
-0.305205 0.909166 0.283315 -0.665611 0.458735 0.588663 -0.0570638 0.990087 0.128344 
-0 0.997694 0.0678733 0.1609 0.986221 0.0384542 0.675197 0.735047 0.061768 
0.77932 0.622336 0.0732034 -0.796505 -0.564799 0.215828 -0.786529 -0.595427 0.163825 
0.855868 -0.0888956 0.509497 -0.822605 -0.24462 0.513304 0.956707 -0.0882092 0.277365 
-0.652763 -0.716574 0.245808 -0.661096 -0.715456 0.225997 0.617788 -0.643235 0.452312 
0.69107 -0.672649 0.264509 -0.558076 -0.687199 0.46509 -0.653807 -0.710289 0.260817 
0.184382 -0.79502 0.577882 0.184863 -0.800134 0.570623 0.541521 -0.715296 0.44171 
0.609479 -0.665943 0.43018 -0.648601 -0.726558 0.22678 -0.224451 -0.964939 0.136066 
-0.0285359 -0.999185 0.0285359 -0 -0.999592 0.0285475 -0 -0.995891 0.0905643 
-0 -0.991849 0.127419 0.144914 -0.978775 0.144914 0.588466 -0.777136 0.223085 
-0.553143 -0.802919 0.222159 -0.0598788 -0.97225 0.226152 0.0968425 -0.917654 0.3854 
0.174763 -0.875343 0.450813 -0.855946 0.305881 0.416886 -0.796968 0.521375 0.304977 
-0.925642 0.303303 0.226262 -0.0881769 0.926234 0.36649 0.087778 0.971385 0.220695 
0.116145 0.971945 0.204531 0.304626 0.906526 0.292257 0.337831 0.850416 0.403316 
-0.81029 -0.550021 0.202255 -0.813748 -0.552822 0.179447 0.327491 0.847072 0.418591 
0.127986 0.886431 0.444815 0.098131 0.929863 0.354577 0.128629 0.974064 0.186154 
0.181711 0.951304 0.249003 0.54164 0.522152 0.658774 0.395878 0.676408 0.62109 
0.561693 0.462136 0.686245 -0.672278 0.422198 0.608104 -0.383302 0.808929 0.445774 
-0.713377 0.418678 0.561963 -0.0814286 0.979631 0.183557 -0.0089053 0.992896 0.118648 
-0 0.992936 0.118653 0.145447 0.982377 0.117391 0.60624 0.78687 0.115363 
0.724881 0.678325 0.120091 -0.802444 -0.569326 0.178749 -0.712287 -0.701822 -0.00969433 
-0.730708 -0.679002 -0.0708754 0.783108 -0.198024 0.589515 0.71675 -0.307837 0.625704 
-0.80038 -0.301344 0.518251 -0.771217 -0.387973 0.504679 0.968865 -0 0.247588 
-0.660471 -0.716101 -0.225784 0.575611 -0.763007 0.294097 0.695973 -0.480817 0.533326 
-0.711316 -0.569009 0.412624 -0.57376 -0.786832 0.227365 0.593776 -0.701786 0.393607 
0.718963 -0.672787 0.174499 -0.648601 -0.726558 -0.22678 -0.224451 -0.964939 -0.136066 
-0.0285359 -0.999185 -0.0285359 -0 -1 -0 -0 -1 -0 
-0 -1 -0 0.0994121 -0.995046 -0 0.414786 -0.899399 0.137967 
-0.411999 -0.905035 0.105682 -0.099372 -0.994645 0.0284062 -0 -0.995891 0.0905643 
0.145447 -0.982377 0.117391 0.603287 -0.783037 0.151319 -0.0426564 0.937857 0.344391 
-0.047157 0.941183 0.33459 -0.162237 0.942844 0.291076 0.0220166 0.925731 0.37754 
-0.881553 0.424794 -0.205948 -0.944739 0.114321 -0.307243 0.175601 0.879852 0.441615 