# vtk DataFile Version 4.0
vtk output
ASCII
DATASET POLYDATA
POINTS 5594 float
44 46 -2.39838 44 45.6016 -2 45.1434 46 -2 
42 46 -2.39838 42 45.6016 -2 40 46 -2.75813 
40 45.3141 -2 38 46 -3.296 38 44.9735 -2 
36.021 46 -2 46 48 -2.57413 46 46.6519 -2 
46.7091 48 -2 44 48 -3 42 48 -3 
40 48 -3.29415 38 48 -3.7381 36 46.0312 -2 
36 48 -2.75813 35.3582 48 -2 46 50 -2.88395 
47.8645 50 -2 44 50 -3 42 50 -3 
40 50 -3.08593 38 50 -3.19507 36 50 -2.7536 
34.9753 50 -2 48 52 -2.07739 48 51.0606 -2 
48.0774 52 -2 46 52 -2.91407 44 52 -3 
42 52 -3 40 52 -2.91407 38 52 -2.70585 
36 52 -2.43707 35.0883 52 -2 48 52.13 -2 
46.4438 54 -2 46 54 -2.2934 44 54 -2.7887 
42 54 -2.70585 40 54 -2.33944 39 54 -2 
38 53.4003 -2 36 52.681 -2 46 54.4305 -2 
44.2332 56 -2 44 56 -2.14726 43.3305 56 -2 
42 55.5027 -2 40 54.5068 -2 44 56.3041 -2 
38 44 -0.797502 38 42.9268 0 39.6452 44 0 
36.7959 44 0 46 46 -1.14342 46 45.6016 0 
46.3984 46 0 44 45 0 42 44.884 0 
40 44.1528 0 36 46 -1.97204 36 44.7148 0 
35.3328 46 0 47.4003 48 0 34.7058 48 0 
48 50 -1.79203 48 49 0 48.5997 50 0 
34 49.4003 0 34 50 -0.620672 33.6606 50 0 
48.9141 52 0 34 52 -0.911698 33.5629 52 0 
48 54 -0.129956 48.0774 54 0 38 54 -1.66056 
36 54 -1 35 54 0 34 52.681 0 
48 54.0774 0 46 55.5131 0 45.495 56 0 
42 56 -1.71579 40 56 -0.966328 38 56 -0.53925 
36.7155 56 0 36 55.5039 0 44 58 -0.375626 
44.2016 58 0 42 58 -0.370225 41.4667 58 0 
40 57.1069 0 38 56.5392 0 44 58.1941 0 
42 58.2934 0 38 42 0.742126 38 41.0489 2 
39.5556 42 2 36 42 1.81206 36 41.8029 2 
35.8527 42 2 40 44 0.220506 40 42.3875 2 
41.6876 44 2 36 44 0.675925 35.2942 44 2 
46 45.3368 2 46.8624 46 2 44 44.7059 2 
42 44.2122 2 35.0859 46 2 48 48 1.96878 
48 47.9762 2 48.0141 48 2 34.5997 48 2 
48.791 50 2 34 49 2 33.4003 50 2 
49 52 2 33.4003 52 2 48.3984 54 2 
34.5997 54 2 34 53 2 48 54.3984 2 
46 55.6016 2 45.6016 56 2 36 56 0.856579 
35.6016 56 2 44.3984 58 2 40 58 1.37933 
39.4003 58 2 38 57.2941 2 36 56.3984 2 
44 58.3984 2 42 58.9141 2 40 58.3394 2 
38 40.0141 4 39.7611 42 4 36 40.128 4 
35.0287 42 4 44 44 3.60162 44 43.795 4 
44.3738 44 4 42 44 2.37378 42 43.209 4 
40 42.2298 4 34.8049 44 4 48 46 3.18894 
48 45.4259 4 49.3481 46 4 46 44.8156 4 
34.9141 46 4 49.9859 48 4 34.7058 48 4 
49.209 50 4 34 49.6016 4 33.795 50 4 
49 52 4 33.795 52 4 48.3984 54 4 
34.7058 54 4 34 52.3984 4 48 54.3984 4 
46 55.6016 4 45.6016 56 4 35.6016 56 4 
44.3984 58 4 39 58 4 38 57.4003 4 
36 56.3984 4 44 58.3984 4 42 59 4 
40 58.5997 4 -52 6 4.27131 -52 5.18802 6 
-50.6025 6 6 -54 6 4.46079 -54 5.33281 6 
-54.9818 6 6 -52 8 4.43108 -50.9753 8 6 
-54 8 4.11424 -56 7.58562 6 -56 8 5.73174 
-56.2298 8 6 -52 8.7536 6 -54 9.44225 6 
-56 9.04871 6 38 40 4.03464 38 39.224 6 
38.5741 40 6 36 40 4.22848 36 39.2617 6 
35.4259 40 6 39.6016 42 6 34.7058 42 6 
44 43.4003 6 45 44 6 42 43 6 
40 42.3984 6 34.1211 44 6 48 45.116 6 
49.8645 46 6 46 44.5997 6 34.4638 46 6 
50 48 4.09942 50 46.5536 6 50.205 48 6 
34.8225 48 6 50 48.3984 6 49.2942 50 6 
34 50 4.39838 34.7058 50 6 48.9141 52 6 
34 52 4.39838 34.7058 52 6 48.0774 54 6 
34.9141 54 6 48 54.0774 6 46 55.5131 6 
45.5484 56 6 35.6016 56 6 44.3984 58 6 
39 58 6 38 57.4003 6 36 56.3984 6 
44 58.3984 6 42 59 6 40 58.5997 6 
-50 6 6.93182 -50 5.41272 8 -49.5484 6 8 
-52 4.6183 8 -54 4.79105 8 -56 6 7.37933 
-56 5.62128 8 -56.4389 6 8 -50 8 7.83721 
-49.9226 8 8 -57.5644 8 8 -50 8.07739 8 
-52 9.20895 8 -54 10 6.93666 -53.2213 10 8 
-56 10 6.22451 -58 9.19194 8 -58 10 7.62978 
-58.2835 10 8 -54 10.6235 8 -55.8951 12 8 
-56 12 7.90563 -56.4697 12 8 -58 11.1149 8 
-56 12.0746 8 38 38 7.35152 38 37.0096 8 
38.4671 38 8 36 38 7.5695 36 37.5315 8 
35.7066 38 8 38.884 40 8 35.116 40 8 
39.6016 42 8 34.7058 42 8 44 43.2941 8 
45.6016 44 8 42 43 8 40 42.3984 8 
34 43.8706 8 34 44 7.34915 33.9406 44 8 
48 44.8533 8 49.4494 46 8 46 44.205 8 
34.1211 46 8 34 44.6508 8 50 48 6.7348 
49.6606 48 8 34.8049 48 8 49.0918 50 8 
35 50 8 48.4141 52 8 35 52 8 
48 52.6344 8 48 54 6.13874 46.8207 54 8 
35 54 8 46 54.8006 8 45 56 8 
35.6016 56 8 44 57.6221 8 44 58 7.26853 
43.4575 58 8 39.6016 58 8 38 57.2941 8 
36 56.3984 8 42 58.5564 8 40 58.205 8 
-52 4 9 -52 3.40028 10 -50.208 4 10 
-54 4 9.62622 -54 3.79495 10 -54.3738 4 10 
-50 4.13551 10 -49.116 6 10 -56 4.81555 10 
-57.8858 6 10 -49.6016 8 10 -58 6.17387 10 
-58 8 8.67593 -58.7058 8 10 -50 8.39838 10 
-52 9.40028 10 -52.8267 10 10 -58.9141 10 10 
-54 11 10 -55.1733 12 10 -58 12 8.73147 
-58.3984 12 10 -56 12.5997 10 -58 12.3984 10 
38 36 8.74923 38 34.7492 10 38.7301 36 10 
36 36 9.36555 36 35.3656 10 35.5859 36 10 
38.9731 38 10 35.0859 38 10 39 40 10 
35 40 10 39.6016 42 10 34.9141 42 10 
48 44 9.15058 48 43.4436 10 49.4575 44 10 
46 44 8.39838 46 43.2941 10 44 43.0859 10 
42 43 10 40 42.3984 10 34 44 8.12943 
34.7058 44 10 50 46 8.81761 50 44.5425 10 
50.5563 46 10 34.7058 46 10 50 48 9.2652 
50.205 48 10 34.9141 48 10 50 48.3293 10 
49 50 10 35 50 10 48 51.2929 10 
48 52 8.86476 47.3765 52 10 35 52 10 
46 53.4296 10 46 54 9.12869 45.4296 54 10 
35 54 10 44 55.5611 10 44 56 9.46725 
43.5167 56 10 35.6016 56 10 42 57.1079 10 
42 58 8.81106 40 57.2941 10 40 58 8.39838 
38 57.0859 10 36 56.3984 10 -50 4 10.2285 
-50 3.42587 12 -49.2617 4 12 -52 3 12 
-54 3.29414 12 -55.4003 4 12 -48.4516 6 12 
-56 4.33943 12 -58 6 10.2912 -58 5.51308 12 
-58.4516 6 12 -49.0429 8 12 -59.0859 8 12 
-50 8.77809 12 -52 9.51424 12 -52.71 10 12 
-59.1951 10 12 -54 11 12 -55.1733 12 12 
-58.4869 12 12 -56 12.5997 12 -58 12.4516 12 
38 34 10.8195 38 33.2119 12 39.0527 34 12 
36 34 11.7434 36 33.84 12 35.8527 34 12 
39.5874 36 12 35.0859 36 12 39.6016 38 12 
35 38 12 39.6016 40 12 35 40 12 
40 42 11.1434 40 41.1434 12 40.7797 42 12 
35 42 12 50 44 10.5425 50 43.2909 12 
50.5741 44 12 48 42.5997 12 46 42.5997 12 
44 42.5564 12 42 42.4516 12 35 44 12 
50.9141 46 12 35 46 12 50.3394 48 12 
35 48 12 50 48.4833 12 48.8921 50 12 
35 50 12 48 50.9634 12 47 52 12 
35 52 12 46 53 12 45 54 12 
35 54 12 44 55 12 42.8267 56 12 
35.6016 56 12 42 56.5997 12 40 57 12 
38 57 12 36 56.3984 12 -48 4 13.5695 
-48 3.7066 14 -47.5315 4 14 -50 3.11604 14 
-52 3 14 -54 3.08594 14 -56 4 12.8267 
-56 3.53615 14 -56.7795 4 14 -46 6 13.7165 
-46 5.53151 14 -45.6298 6 14 -48 6 12.4869 
-58 5.01817 14 -58.6672 6 14 -46 8 13.795 
-45.6876 8 14 -48 8 12.8843 -59.1951 8 14 
-46 8.37378 14 -48 9.5695 14 -50 10 13.7397 
-49.2322 10 14 -52 10 13.4792 -59.4661 10 14 
-50 10.2248 14 -52 10.1986 14 -54 11.1079 14 
-55.1376 12 14 -58.602 12 14 -56 12.5997 14 
-58 12.5102 14 40 30 13.8527 40 29.84 14 
40.9684 30 14 39.7434 30 14 42 32 13.6016 
42 30.5426 14 42.3984 32 14 40 32 12.9713 
38 31.1793 14 38 32 13.2315 37.0496 32 14 
42 34 13.6016 42.3984 34 14 40 34 12.5741 
36 32.973 14 35.3328 34 14 42 36 13.6016 
42.3984 36 14 40 36 12.3984 35 36 14 
42 38 13.5484 42.505 38 14 40 38 12.3984 
35 38 14 42 40 13.3328 43.2852 40 14 
40 40 12.3984 35 40 14 50 42 13.6876 
50 41.703 14 50.2389 42 14 48 42 12.8267 
48 41 14 46 42 12.8267 46 41 14 
44 42 12.7091 44 40.5506 14 42 42 12.4869 
35 42 14 50.7887 44 14 35 44 14 
50.4638 46 14 35 46 14 50 46.9367 14 
50 48 12.7659 49.4531 48 14 35 48 14 
48.4208 50 14 35 50 14 48 50.5506 14 
46.8921 52 14 35 52 14 46 52.9634 14 
44.9634 54 14 35 54 14 44 54.8921 14 
42.4833 56 14 35.6016 56 14 42 56.3394 14 
40 56.9141 14 38 57 14 36 56.3984 14 
-46 4 15.1793 -46 3.29341 16 -45.1023 4 16 
-48 2.68414 16 -50 2.59972 16 -52 2.70586 16 
-54 3 16 -56 3.40028 16 -57.2547 4 16 
-44 6 15.4296 -44 5.22803 16 -43.4296 6 16 
-58 4.60252 16 -58.7887 6 16 -44 8 15.1079 
-43.0366 8 16 -59.0859 8 16 -44 10 15.5792 
-43.4494 10 16 -46 10 14.791 -48 10 14.2835 
-59.1951 10 16 -44 10.7398 16 -45.4306 12 16 
-46 12 15.7165 -48 12 15.3582 -50 12 15.6622 
-50.7256 12 16 -52 11.4739 16 -54 11.7158 16 
-54.4973 12 16 -58.4869 12 16 -46 12.3702 16 
-48 12.7581 16 -50 12.306 16 -56 12.7059 16 
-58 12.4516 16 42 30 14.2713 42 28.3328 16 
42.812 30 16 40 28.16 16 38 30 15.1308 
38 29.0698 16 37 30 16 43 32 16 
36 32 15.2465 36 31.2465 16 35.5859 32 16 
43 34 16 35.0859 34 16 43.116 36 16 
35 36 16 43.8472 38 16 35 38 16 
50 40 15.2696 50 39.1733 16 51.1678 40 16 
48 40 15 48 39 16 46 40 15 
46 39 16 44 40 14.4825 44 38.1879 16 
35 40 16 51.1844 42 16 35 42 16 
50.7058 44 16 35 44 16 50 45.4003 16 
50 46 15.1733 49.6606 46 16 35 46 16 
48.791 48 16 35 48 16 48 49.359 16 
48 50 15 47.5792 50 16 35 50 16 
46.3654 52 16 35 52 16 46 52.4389 16 
44.4389 54 16 35.116 54 16 44 54.3654 16 
42 55.4531 16 42 56 14.7659 40.7659 56 16 
36 56 15.6669 36.208 56 16 36 55.8645 16 
40 56.3394 16 38 56.5997 16 -46 2 17.6127 
-46 1.71648 18 -45.4306 2 18 -48 2 17.0477 
-48 1.40028 18 -50 2 17 -50 1.40028 18 
-52 2 17.6016 -52 1.79495 18 -52.3293 2 18 
-44 4 16.9592 -44 2.90642 18 -42.7337 4 18 
-54 3 18 -56 4 17.5347 -55.6707 4 18 
-42 6 17.3765 -42 4.93666 18 -41.3215 6 18 
-56 4.20505 18 -58 5.29089 18 -58.5741 6 18 
-42 8 17 -41 8 18 -59 8 18 
-42 10 17.1467 -41.1467 10 18 -59 10 18 
-42 11.6771 18 -44 12 16.8487 -42.2807 12 18 
-52 12 16.6228 -54 12 16.3952 -58.5741 12 18 
-44 12.9663 18 -46 14 17.8029 -45.7668 14 18 
-48 14 17.4494 -49.3448 14 18 -50 13.7702 18 
-52 13.2419 18 -54 13.1467 18 -56 13.3159 18 
-58 12.7091 18 -46 14.1665 18 -48 14.4717 18 
40 26 17.4608 40 25.4608 18 41.5664 26 18 
38 26 17.7763 38 25.7317 18 37.6217 26 18 
42 28 16.3328 42 26.2713 18 42.812 28 18 
40 28 16.1473 38 28 16.7536 36 27.7434 18 
36 28 17.84 35.8527 28 18 42.9731 30 18 
36 30 16.973 35.3328 30 18 43 32 18 
35.1775 32 18 43.116 34 18 35.3328 34 18 
43.8472 36 18 35.5484 36 18 50 38 17.0366 
50 37.0366 18 51.9762 38 18 48 38 17 
48 37 18 46 38 17 46 37 18 
44 38 16.1879 44 36.1879 18 35.4259 38 18 
52 40 17.5567 52 38.1449 18 52.1421 40 18 
35.116 40 18 52 40.2855 18 51.2942 42 18 
35 42 18 50.5997 44 18 35 44 18 
50 44.9523 18 49.3159 46 18 35 46 18 
48.2835 48 18 35 48 18 48 48.3873 18 
46.7066 50 18 35 50 18 46 50.8575 18 
46 52 16.5798 44.9592 52 18 35.116 52 18 
44 52.9592 18 44 54 16.5798 42.5798 54 18 
[...]
POINT_DATA 5594
SCALARS scalars unsigned_short
LOOKUP_TABLE default
1 1 1 1 1 1 1 1 1 
1 1 1 1 1 1 1 1 1 
1 1 1 1 1 1 1 1 1 
1 1 1 1 1 1 1 1 1 
1 1 1 1 1 1 1 1 1 
1 1 1 1 1 1 1 1 1 
1 1 1 1 1 1 1 1 1 
1 1 1 1 1 1 1 1 1 
1 1 1 1 1 1 1 1 1 
1 1 1 1 1 1 1 1 1 
1 1 1 1 1 1 1 1 1 
1 1 1 1 1 1 1 1 1 
1 1 1 1 1 1 1 1 1 
1 1 1 1 1 1 1 1 1 
1 1 1 1 1 1 1 1 1 
1 1 1 1 1 1 1 1 1 
1 1 1 1 1 1 1 1 1 
1 1 1 1 1 1 1 1 1 
1 1 1 1 1 1 1 1 1 
1 1 1 1 1 1 1 1 1 
1 1 1 1 1 1 1 1 1 
1 1 1 1 1 1 1 1 1 
1 1 1 1 1 1 1 1 1 
1 1 1 1 1 1 1 1 1 
1 1 1 1 1 1 1 1 1 
1 1 1 1 1 1 1 1 1 
1 1 1 1 1 1 1 1 1 
1 1 1 1 1 1 1 1 1 
1 1 1 1 1 1 1 1 1 
1 1 1 1 1 1 1 1 1 
1 1 1 1 1 1 1 1 1 
1 1 1 1 1 1 1 1 1 
1 1 1 1 1 1 1 1 1 
1 1 1 1 1 1 1 1 1 
1 1 1 1 1 1 1 1 1 
1 1 1 1 1 1 1 1 1 
1 1 1 1 1 1 1 1 1 
1 1 1 1 1 1 1 1 1 
1 1 1 1 1 1 1 1 1 
1 1 1 1 1 1 1 1 1 
1 1 1 1 1 1 1 1 1 
1 1 1 1 1 1 1 1 1 
1 1 1 1 1 1 1 1 1 
1 1 1 1 1 1 1 1 1 
1 1 1 1 1 1 1 1 1 
1 1 1 1 1 1 1 1 1 
1 1 1 1 1 1 1 1 1 
1 1 1 1 1 1 1 1 1 
1 1 1 1 1 1 1 1 1 
1 1 1 1 1 1 1 1 1 
1 1 1 1 1 1 1 1 1 
1 1 1 1 1 1 1 1 1 
1 1 1 1 1 1 1 1 1 
1 1 1 1 1 1 1 1 1 
1 1 1 1 1 1 1 1 1 
1 1 1 1 1 1 1 1 1 
1 1 1 1 1 1 1 1 1 
1 1 1 1 1 1 1 1 1 
1 1 1 1 1 1 1 1 1 
1 1 1 1 1 1 1 1 1 
1 1 1 1 1 1 1 1 1 
1 1 1 1 1 1 1 1 1 
1 1 1 1 1 1 1 1 1 
1 1 1 1 1 1 1 1 1 
1 1 1 1 1 1 1 1 1 
1 1 1 1 1 1 1 1 1 
1 1 1 1 1 1 1 1 1 
1 1 1 1 1 1 1 1 1 
1 1 1 1 1 1 1 1 1 
1 1 1 1 1 1 1 1 1 
1 1 1 1 1 1 1 1 1 
1 1 1 1 1 1 1 1 1 
1 1 1 1 1 1 1 1 1 
1 1 1 1 1 1 1 1 1 
1 1 1 1 1 1 1 1 1 
1 1 1 1 1 1 1 1 1 
1 1 1 1 1 1 1 1 1 
1 1 1 1 1 1 1 1 1 
1 1 1 1 1 1 1 1 1 
1 1 1 1 1 1 1 1 1 
1 1 1 1 1 1 1 1 1 
1 1 1 1 1 1 1 1 1 
1 1 1 1 1 1 1 1 1 
1 1 1 1 1 1 1 1 1 
1 1 1 1 1 1 1 1 1 
1 1 1 1 1 1 1 1 1 
1 1 1 1 1 1 1 1 1 
1 1 1 1 1 1 1 1 1 
1 1 1 1 1 1 1 1 1 
1 1 1 1 1 1 1 1 1 
1 1 1 1 1 1 1 1 1 
1 1 1 1 1 1 1 1 1 
1 1 1 1 1 1 1 1 1 
1 1 1 1 1 1 1 1 1 
1 1 1 1 1 1 1 1 1 
1 1 1 1 1 1 1 1 1 
1 1 1 1 1 1 1 1 1 
1 1 1 1 1 1 1 1 1 
1 1 1 1 1 1 1 1 1 
1 1 1 1 1 1 1 1 1 
1 1 1 1 1 1 1 1 1 
1 1 1 1 1 1 1 1 1 
1 1 1 1 1 1 1 1 1 
1 1 1 1 1 1 1 1 1 
1 1 1 1 1 1 1 1 1 
1 1 1 1 1 1 1 1 1 
1 1 1 1 1 1 1 1 1 
1 1 1 1 1 1 1 1 1 
1 1 1 1 1 1 1 1 1 
1 1 1 1 1 1 1 1 1 
1 1 1 1 1 1 1 1 1 
1 1 1 1 1 1 1 1 1 
1 1 1 1 1 1 1 1 1 
1 1 1 1 1 1 1 1 1 
1 1 1 1 1 1 1 1 1 
1 1 1 1 1 1 1 1 1 
1 1 1 1 1 1 1 1 1 
1 1 1 1 1 1 1 1 1 
1 1 1 1 1 1 1 1 1 
1 1 1 1 1 1 1 1 1 
1 1 1 1 1 1 1 1 1 
1 1 1 1 1 1 1 1 1 
1 1 1 1 1 1 1 1 1 
1 1 1 1 1 1 1 1 1 
1 1 1 1 1 1 1 1 1 
1 1 1 1 1 1 1 1 1 
1 1 1 1 1 1 1 1 1 
1 1 1 1 1 1 1 1 1 
1 1 1 1 1 1 1 1 1 
1 1 1 1 1 1 1 1 1 
1 1 1 1 1 1 1 1 1 
1 1 1 1 1 1 1 1 1 
1 1 1 1 1 1 1 1 1 
1 1 1 1 1 1 1 1 1 
1 1 1 1 1 1 1 1 1 
1 1 1 1 1 1 1 1 1 
1 1 1 1 1 1 1 1 1 
1 1 1 1 1 1 1 1 1 
1 1 1 1 1 1 1 1 1 
1 1 1 1 1 1 1 1 1 
1 1 1 1 1 1 1 1 1 
1 1 1 1 1 1 1 1 1 
1 1 1 1 1 1 1 1 1 
1 1 1 1 1 1 1 1 1 
1 1 1 1 1 1 1 1 1 
1 1 1 1 1 1 1 1 1 
1 1 1 1 1 1 1 1 1 
1 1 1 1 1 1 1 1 1 
1 1 1 1 1 1 1 1 1 
1 1 1 1 1 1 1 1 1 
1 1 1 1 1 1 1 1 1 
1 1 1 1 1 1 1 1 1 
1 1 1 1 1 1 1 1 1 
1 1 1 1 1 1 1 1 1 
1 1 1 1 1 1 1 1 1 
1 1 1 1 1 1 1 1 1 
1 1 1 1 1 1 1 1 1 
1 1 1 1 1 1 1 1 1 
1 1 1 1 1 1 1 1 1 
1 1 1 1 1 1 1 1 1 
1 1 1 1 1 1 1 1 1 
1 1 1 1 1 1 1 1 1 
1 1 1 1 1 1 1 1 1 
1 1 1 1 1 1 1 1 1 
1 1 1 1 1 1 1 1 1 
1 1 1 1 1 1 1 1 1 
1 1 1 1 1 1 1 1 1 
1 1 1 1 1 1 1 1 1 
1 1 1 1 1 1 1 1 1 
1 1 1 1 1 1 1 1 1 
1 1 1 1 1 1 1 1 1 
1 1 1 1 1 1 1 1 1 
1 1 1 1 1 1 1 1 1 
1 1 1 1 1 1 1 1 1 
1 1 1 1 1 1 1 1 1 
1 1 1 1 1 1 1 1 1 
1 1 1 1 1 1 1 1 1 
1 1 1 1 1 1 1 1 1 
1 1 1 1 1 1 1 1 1 
1 1 1 1 1 1 1 1 1 
1 1 1 1 1 1 1 1 1 
1 1 1 1 1 1 1 1 1 
1 1 1 1 1 1 1 1 1 
1 1 1 1 1 1 1 1 1 
1 1 1 1 1 1 1 1 1 
1 1 1 1 1 1 1 1 1 
1 1 1 1 1 1 1 1 1 
1 1 1 1 1 1 1 1 1 
1 1 1 1 1 1 1 1 1 
1 1 1 1 1 1 1 1 1 
1 1 1 1 1 1 1 1 1 
1 1 1 1 1 1 1 1 1 
1 1 1 1 1 1 1 1 1 
1 1 1 1 1 1 1 1 1 
1 1 1 1 1 1 1 1 1 
1 1 1 1 1 1 1 1 1 
1 1 1 1 1 1 1 1 1 
1 1 1 1 1 1 1 1 1 
1 1 1 1 1 1 1 1 1 
1 1 1 1 1 1 1 1 1 
1 1 1 1 1 1 1 1 1 
1 1 1 1 1 1 1 1 1 
1 1 1 1 1 1 1 1 1 
1 1 1 1 1 1 1 1 1 
1 1 1 1 1 1 1 1 1 
1 1 1 1 1 1 1 1 1 
1 1 1 1 1 1 1 1 1 
1 1 1 1 1 1 1 1 1 
1 1 1 1 1 1 1 1 1 
1 1 1 1 1 1 1 1 1 
1 1 1 1 1 1 1 1 1 
1 1 1 1 1 1 1 1 1 
1 1 1 1 1 1 1 1 1 
1 1 1 1 1 1 1 1 1 
1 1 1 1 1 1 1 1 1 
1 1 1 1 1 1 1 1 1 
1 1 1 1 1 1 1 1 1 
1 1 1 1 1 1 1 1 1 
1 1 1 1 1 1 1 1 1 
1 1 1 1 1 1 1 1 1 
1 1 1 1 1 1 1 1 1 
1 1 1 1 1 1 1 1 1 
1 1 1 1 1 1 1 1 1 
1 1 1 1 1 1 1 1 1 
1 1 1 1 1 1 1 1 1 
1 1 1 1 1 1 1 1 1 
1 1 1 1 1 1 1 1 1 
1 1 1 1 1 1 1 1 1 
1 1 1 1 1 1 1 1 1 
1 1 1 1 1 1 1 1 1 
1 1 1 1 1 1 1 1 1 
1 1 1 1 1 1 1 1 1 
1 1 1 1 1 1 1 1 1 
1 1 1 1 1 1 1 1 1 
1 1 1 1 1 1 1 1 1 
1 1 1 1 1 1 1 1 1 
1 1 1 1 1 1 1 1 1 
1 1 1 1 1 1 1 1 1 
1 1 1 1 1 1 1 1 1 
1 1 1 1 1 1 1 1 1 
1 1 1 1 1 1 1 1 1 
1 1 1 1 1 1 1 1 1 
1 1 1 1 1 1 1 1 1 
1 1 1 1 1 1 1 1 1 
1 1 1 1 1 1 1 1 1 
1 1 1 1 1 1 1 1 1 
1 1 1 1 1 1 1 1 1 
1 1 1 1 1 1 1 1 1 
1 1 1 1 1 1 1 1 1 
1 1 1 1 1 1 1 1 1 
1 1 1 1 1 1 1 1 1 
1 1 1 1 1 1 1 1 1 
1 1 1 1 1 1 1 1 1 
1 1 1 1 1 1 1 1 1 
1 1 1 1 1 1 1 1 1 
1 1 1 1 1 1 1 1 1 
1 1 1 1 1 1 1 1 1 
1 1 1 1 1 1 1 1 1 
1 1 1 1 1 1 1 1 1 
1 1 1 1 1 1 1 1 1 
1 1 1 1 1 1 1 1 1 
1 1 1 1 1 1 1 1 1 
1 1 1 1 1 1 1 1 1 
1 1 1 1 1 1 1 1 1 
1 1 1 1 1 1 1 1 1 
1 1 1 1 1 1 1 1 1 
1 1 1 1 1 1 1 1 1 
1 1 1 1 1 1 1 1 1 
1 1 1 1 1 1 1 1 1 
1 1 1 1 1 1 1 1 1 
1 1 1 1 1 1 1 1 1 
1 1 1 1 1 1 1 1 1 
1 1 1 1 1 1 1 1 1 
1 1 1 1 1 1 1 1 1 
1 1 1 1 1 1 1 1 1 
1 1 1 1 1 1 1 1 1 
1 1 1 1 1 1 1 1 1 
1 1 1 1 1 1 1 1 1 
1 1 1 1 1 1 1 1 1 
1 1 1 1 1 1 1 1 1 
1 1 1 1 1 1 1 1 1 
1 1 1 1 1 1 1 1 1 
1 1 1 1 1 1 1 1 1 
1 1 1 1 1 1 1 1 1 
1 1 1 1 1 1 1 1 1 
1 1 1 1 1 1 1 1 1 
1 1 1 1 1 1 1 1 1 
1 1 1 1 1 1 1 1 1 
1 1 1 1 1 1 1 1 1 
1 1 1 1 1 1 1 1 1 
1 1 1 1 1 1 1 1 1 
1 1 1 1 1 1 1 1 1 
1 1 1 1 1 1 1 1 1 
1 1 1 1 1 1 1 1 1 
1 1 1 1 1 1 1 1 1 
1 1 1 1 1 1 1 1 1 
1 1 1 1 1 1 1 1 1 
1 1 1 1 1 1 1 1 1 
1 1 1 1 1 1 1 1 1 
1 1 1 1 1 1 1 1 1 
1 1 1 1 1 1 1 1 1 
1 1 1 1 1 1 1 1 1 
1 1 1 1 1 1 1 1 1 
1 1 1 1 1 1 1 1 1 
1 1 1 1 1 1 1 1 1 
1 1 1 1 1 1 1 1 1 
1 1 1 1 1 1 1 1 1 
1 1 1 1 1 1 1 1 1 
1 1 1 1 1 1 1 1 1 
1 1 1 1 1 1 1 1 1 
1 1 1 1 1 1 1 1 1 
1 1 1 1 1 1 1 1 1 
1 1 1 1 1 1 1 1 1 
1 1 1 1 1 1 1 1 1 
1 1 1 1 1 1 1 1 1 
1 1 1 1 1 1 1 1 1 
1 1 1 1 1 1 1 1 1 
1 1 1 1 1 1 1 1 1 
1 1 1 1 1 1 1 1 1 
1 1 1 1 1 1 1 1 1 
1 1 1 1 1 1 1 1 1 
1 1 1 1 1 1 1 1 1 
1 1 1 1 1 1 1 1 1 
1 1 1 1 1 1 1 1 1 
1 1 1 1 1 1 1 1 1 
1 1 1 1 1 1 1 1 1 
1 1 1 1 1 1 1 1 1 
1 1 1 1 1 1 1 1 1 
1 1 1 1 1 1 1 1 1 
1 1 1 1 1 1 1 1 1 
1 1 1 1 1 1 1 1 1 
1 1 1 1 1 1 1 1 1 
1 1 1 1 1 1 1 1 1 
1 1 1 1 1 1 1 1 1 
1 1 1 1 1 1 1 1 1 
1 1 1 1 1 1 1 1 1 
1 1 1 1 1 1 1 1 1 
1 1 1 1 1 1 1 1 1 
1 1 1 1 1 1 1 1 1 
1 1 1 1 1 1 1 1 1 
1 1 1 1 1 1 1 1 1 
1 1 1 1 1 1 1 1 1 
1 1 1 1 1 1 1 1 1 
1 1 1 1 1 1 1 1 1 
1 1 1 1 1 1 1 1 1 
1 1 1 1 1 1 1 1 1 
1 1 1 1 1 1 1 1 1 
1 1 1 1 1 1 1 1 1 
1 1 1 1 1 1 1 1 1 
1 1 1 1 1 1 1 1 1 
1 1 1 1 1 1 1 1 1 
1 1 1 1 1 1 1 1 1 
1 1 1 1 1 1 1 1 1 
1 1 1 1 1 1 1 1 1 
1 1 1 1 1 1 1 1 1 
1 1 1 1 1 1 1 1 1 
1 1 1 1 1 1 1 1 1 
1 1 1 1 1 1 1 1 1 
1 1 1 1 1 1 1 1 1 
1 1 1 1 1 1 1 1 1 
1 1 1 1 1 1 1 1 1 
1 1 1 1 1 1 1 1 1 
1 1 1 1 1 1 1 1 1 
1 1 1 1 1 1 1 1 1 
1 1 1 1 1 1 1 1 1 
1 1 1 1 1 1 1 1 1 
1 1 1 1 1 1 1 1 1 
1 1 1 1 1 1 1 1 1 
1 1 1 1 1 1 1 1 1 
1 1 1 1 1 1 1 1 1 
1 1 1 1 1 1 1 1 1 
1 1 1 1 1 1 1 1 1 
1 1 1 1 1 1 1 1 1 
1 1 1 1 1 1 1 1 1 
1 1 1 1 1 1 1 1 1 
1 1 1 1 1 1 1 1 1 
1 1 1 1 1 1 1 1 1 
1 1 1 1 1 1 1 1 1 
1 1 1 1 1 1 1 1 1 
1 1 1 1 1 1 1 1 1 
1 1 1 1 1 1 1 1 1 
1 1 1 1 1 1 1 1 1 
1 1 1 1 1 1 1 1 1 
1 1 1 1 1 1 1 1 1 
1 1 1 1 1 1 1 1 1 
1 1 1 1 1 1 1 1 1 
1 1 1 1 1 1 1 1 1 
1 1 1 1 1 1 1 1 1 
1 1 1 1 1 1 1 1 1 
1 1 1 1 1 1 1 1 1 
1 1 1 1 1 1 1 1 1 
1 1 1 1 1 1 1 1 1 
1 1 1 1 1 1 1 1 1 
1 1 1 1 1 1 1 1 1 
1 1 1 1 1 1 1 1 1 
1 1 1 1 1 1 1 1 1 
1 1 1 1 1 1 1 1 1 
1 1 1 1 1 1 1 1 1 
1 1 1 1 1 1 1 1 1 
1 1 1 1 1 1 1 1 1 
1 1 1 1 1 1 1 1 1 
1 1 1 1 1 1 1 1 1 
1 1 1 1 1 1 1 1 1 
1 1 1 1 1 1 1 1 1 
1 1 1 1 1 1 1 1 1 
1 1 1 1 1 1 1 1 1 
1 1 1 1 1 1 1 1 1 
1 1 1 1 1 1 1 1 1 
1 1 1 1 1 1 1 1 1 
1 1 1 1 1 1 1 1 1 
1 1 1 1 1 1 1 1 1 
1 1 1 1 1 1 1 1 1 
1 1 1 1 1 1 1 1 1 
1 1 1 1 1 1 1 1 1 
1 1 1 1 1 1 1 1 1 
1 1 1 1 1 1 1 1 1 
1 1 1 1 1 1 1 1 1 
1 1 1 1 1 1 1 1 1 
1 1 1 1 1 1 1 1 1 
1 1 1 1 1 1 1 1 1 
1 1 1 1 1 1 1 1 1 
1 1 1 1 1 1 1 1 1 
1 1 1 1 1 1 1 1 1 
1 1 1 1 1 1 1 1 1 
1 1 1 1 1 1 1 1 1 
1 1 1 1 1 1 1 1 1 
1 1 1 1 1 1 1 1 1 
1 1 1 1 1 1 1 1 1 
1 1 1 1 1 1 1 1 1 
1 1 1 1 1 1 1 1 1 
1 1 1 1 1 1 1 1 1 
1 1 1 1 1 1 1 1 1 
1 1 1 1 1 1 1 1 1 
1 1 1 1 1 1 1 1 1 
1 1 1 1 1 1 1 1 1 
1 1 1 1 1 1 1 1 1 
1 1 1 1 1 1 1 1 1 
1 1 1 1 1 1 1 1 1 
1 1 1 1 1 1 1 1 1 
1 1 1 1 1 1 1 1 1 
1 1 1 1 1 1 1 1 1 
1 1 1 1 1 1 1 1 1 
1 1 1 1 1 1 1 1 1 
1 1 1 1 1 1 1 1 1 
1 1 1 1 1 1 1 1 1 
1 1 1 1 1 1 1 1 1 
1 1 1 1 1 1 1 1 1 
1 1 1 1 1 1 1 1 1 
1 1 1 1 1 1 1 1 1 
1 1 1 1 1 1 1 1 1 
1 1 1 1 1 1 1 1 1 
1 1 1 1 1 1 1 1 1 
1 1 1 1 1 1 1 1 1 
1 1 1 1 1 1 1 1 1 
1 1 1 1 1 1 1 1 1 
1 1 1 1 1 1 1 1 1 
1 1 1 1 1 1 1 1 1 
1 1 1 1 1 1 1 1 1 
1 1 1 1 1 1 1 1 1 
1 1 1 1 1 1 1 1 1 
1 1 1 1 1 1 1 1 1 
1 1 1 1 1 1 1 1 1 
1 1 1 1 1 1 1 1 1 
1 1 1 1 1 1 1 1 1 
1 1 1 1 1 1 1 1 1 
1 1 1 1 1 1 1 1 1 
1 1 1 1 1 1 1 1 1 
1 1 1 1 1 1 1 1 1 
1 1 1 1 1 1 1 1 1 
1 1 1 1 1 1 1 1 1 
1 1 1 1 1 1 1 1 1 
1 1 1 1 1 1 1 1 1 
1 1 1 1 1 1 1 1 1 
1 1 1 1 1 1 1 1 1 
1 1 1 1 1 1 1 1 1 
1 1 1 1 1 1 1 1 1 
1 1 1 1 1 1 1 1 1 
1 1 1 1 1 1 1 1 1 
1 1 1 1 1 1 1 1 1 
1 1 1 1 1 1 1 1 1 
1 1 1 1 1 1 1 1 1 
1 1 1 1 1 1 1 1 1 
1 1 1 1 1 1 1 1 1 
1 1 1 1 1 1 1 1 1 
1 1 1 1 1 1 1 1 1 
1 1 1 1 1 1 1 1 1 
1 1 1 1 1 1 1 1 1 
1 1 1 1 1 1 1 1 1 
1 1 1 1 1 1 1 1 1 
1 1 1 1 1 1 1 1 1 
1 1 1 1 1 1 1 1 1 
1 1 1 1 1 1 1 1 1 
1 1 1 1 1 1 1 1 1 
1 1 1 1 1 1 1 1 1 
1 1 1 1 1 1 1 1 1 
1 1 1 1 1 1 1 1 1 
1 1 1 1 1 1 1 1 1 
1 1 1 1 1 1 1 1 1 
1 1 1 1 1 1 1 1 1 
1 1 1 1 1 1 1 1 1 
1 1 1 1 1 1 1 1 1 
1 1 1 1 1 1 1 1 1 
1 1 1 1 1 1 1 1 1 
1 1 1 1 1 1 1 1 1 
1 1 1 1 1 1 1 1 1 
1 1 1 1 1 1 1 1 1 
1 1 1 1 1 1 1 1 1 
1 1 1 1 1 1 1 1 1 
1 1 1 1 1 1 1 1 1 
1 1 1 1 1 1 1 1 1 
1 1 1 1 1 1 1 1 1 
1 1 1 1 1 1 1 1 1 
1 1 1 1 1 1 1 1 1 
1 1 1 1 1 1 1 1 1 
1 1 1 1 1 1 1 1 1 
1 1 1 1 1 1 1 1 1 
1 1 1 1 1 1 1 1 1 
1 1 1 1 1 1 1 1 1 
1 1 1 1 1 1 1 1 1 
1 1 1 1 1 1 1 1 1 
1 1 1 1 1 1 1 1 1 
1 1 1 1 1 1 1 1 1 
1 1 1 1 1 1 1 1 1 
1 1 1 1 1 1 1 1 1 
1 1 1 1 1 1 1 1 1 
1 1 1 1 1 1 1 1 1 
1 1 1 1 1 1 1 1 1 
1 1 1 1 1 1 1 1 1 
1 1 1 1 1 1 1 1 1 
1 1 1 1 1 1 1 1 1 
1 1 1 1 1 1 1 1 1 
1 1 1 1 1 1 1 1 1 
1 1 1 1 1 1 1 1 1 
1 1 1 1 1 1 1 1 1 
1 1 1 1 1 1 1 1 1 
1 1 1 1 1 1 1 1 1 
1 1 1 1 1 1 1 1 1 
1 1 1 1 1 1 1 1 1 
1 1 1 1 1 1 1 1 1 
1 1 1 1 1 1 1 1 1 
1 1 1 1 1 1 1 1 1 
1 1 1 1 1 1 1 1 1 
1 1 1 1 1 1 1 1 1 
1 1 1 1 1 1 1 1 1 
1 1 1 1 1 1 1 1 1 
1 1 1 1 1 1 1 1 1 
1 1 1 1 1 1 1 1 1 
1 1 1 1 1 1 1 1 1 
1 1 1 1 1 1 1 1 1 
1 1 1 1 1 1 1 1 1 
1 1 1 1 1 1 1 1 1 
1 1 1 1 1 1 1 1 1 
1 1 1 1 1 1 1 1 1 
1 1 1 1 1 1 1 1 1 
1 1 1 1 1 1 1 1 1 
1 1 1 1 1 1 1 1 1 
1 1 1 1 1 1 1 1 1 
1 1 1 1 1 1 1 1 1 
1 1 1 1 1 1 1 1 1 
1 1 1 1 1 1 1 1 1 
1 1 1 1 1 1 1 1 1 
1 1 1 1 1 1 1 1 1 
1 1 1 1 1 1 1 1 1 
1 1 1 1 1 1 1 1 1 
1 1 1 1 1 1 1 1 1 
1 1 1 1 1 1 1 1 1 
1 1 1 1 1 1 1 1 1 
1 1 1 1 1 1 1 1 1 
1 1 1 1 1 1 1 1 1 
1 1 1 1 1 1 1 1 1 
1 1 1 1 1 1 1 1 1 
1 1 1 1 1 1 1 1 1 
1 1 1 1 1 1 1 1 1 
1 1 1 1 1 1 1 1 1 
1 1 1 1 1 1 1 1 1 
1 1 1 1 1 1 1 1 1 
1 1 1 1 1 1 1 1 1 
1 1 1 1 1 1 1 1 1 
1 1 1 1 1 1 1 1 1 
1 1 1 1 1 1 1 1 1 
1 1 1 1 1 1 1 1 1 
1 1 1 1 1 1 1 1 1 
1 1 1 1 1 1 1 1 1 
1 1 1 1 1 1 1 1 1 
1 1 1 1 1 1 1 1 1 
1 1 1 1 1 1 1 1 1 
1 1 1 1 1 1 1 1 1 
1 1 1 1 1 1 1 1 1 
1 1 1 1 1 1 1 1 1 
1 1 1 1 1 1 1 1 1 
1 1 1 1 1 1 1 1 1 
1 1 1 1 1 1 1 1 1 
1 1 1 1 1 1 1 1 1 
1 1 1 1 1 1 1 1 1 
1 1 1 1 1 1 1 1 1 
1 1 1 1 1 1 1 1 1 
1 1 1 1 1 1 1 1 1 
1 1 1 1 1 1 1 1 1 
1 1 1 1 1 1 1 1 1 
1 1 1 1 1 1 1 1 1 
1 1 1 1 1 1 1 1 1 
1 1 1 1 1 1 1 1 1 
1 1 1 1 1 1 1 1 1 
1 1 1 1 1 1 1 1 1 
1 1 1 1 1 1 1 1 1 
1 1 1 1 1 1 1 1 1 
1 1 1 1 1 1 1 1 1 
1 1 1 1 1 1 1 1 1 
1 1 1 1 1 1 1 1 1 
1 1 1 1 1 1 1 1 1 
1 1 1 1 1 1 1 1 1 
1 1 1 1 1 1 1 1 1 
1 1 1 1 1 1 1 1 1 
1 1 1 1 1 1 1 1 1 
1 1 1 1 1 1 1 1 1 
1 1 1 1 1 1 1 1 1 
1 1 1 1 1 1 1 1 1 
1 1 1 1 1 1 1 1 1 
1 1 1 1 1 1 1 1 1 
1 1 1 1 1 1 1 1 1 
1 1 1 1 1 1 1 1 1 
1 1 1 1 1 
NORMALS normals float
-0.154312 0.645674 0.747858 -0.154312 0.747858 0.645674 -0.394536 0.665306 0.633805 
-0.0833026 0.644236 0.760277 -0.0732148 0.742335 0.666017 -0.210825 0.600777 0.771116 
-0.161809 0.745562 0.646494 0.109636 0.575208 0.810627 0.116311 0.752123 0.648678 
0.677215 0.533394 0.506824 -0.506987 0.289852 0.811758 -0.572888 0.524667 0.629702 
-0.663621 0.386073 0.640746 -0.117237 0.154055 0.981082 -0.0894768 0.154502 0.983932 
-0.224231 0.0583899 0.972785 0.096849 -0.0845901 0.991698 0.682881 0.52594 0.507012 
0.698135 0.129305 0.704194 0.797661 0.224736 0.55967 -0.25834 0.098806 0.960988 
-0.712773 0.291509 0.637948 -0.0375017 -0 0.999297 -0.0285475 -0 0.999592 
-0.064913 -0.122511 0.990342 0.0902555 -0.29314 0.9518 0.470652 -0.0885218 0.877867 
0.664575 0.0887277 0.741935 -0.682019 -0.219665 0.697566 -0.734733 0.0163952 0.678158 
-0.697663 -0.219057 0.682114 -0.224091 -0.147162 0.963393 -0.0284854 -0.0659167 0.997418 
0.0284303 -0.0905277 0.995488 0.092934 -0.213246 0.972568 0.137372 -0.389201 0.910852 
0.297401 -0.387961 0.872375 0.487768 -0.342987 0.802772 -0.687645 -0.242773 0.684255 
-0.489862 -0.526163 0.695117 -0.434773 -0.488955 0.756237 -0.105995 -0.240096 0.964945 
0.124291 -0.326268 0.93707 0.251214 -0.462844 0.850099 0.266403 -0.488613 0.830835 
0.241502 -0.474559 0.846446 0.321698 -0.461744 0.826622 -0.495035 -0.535292 0.684399 
-0.266956 -0.494296 0.827288 -0.202789 -0.457564 0.865744 -0.0310305 -0.487105 0.872792 
0.240341 -0.456348 0.856728 0.264449 -0.505732 0.821159 -0.208542 -0.499755 0.840687 
0.0663999 0.693665 0.717231 0.0341 0.644707 0.763669 -0.335772 0.712374 0.616264 
0.444317 0.585931 0.677693 -0.613395 0.673893 0.411842 -0.610527 0.763001 0.212337 
-0.693114 0.682895 0.230756 -0.185555 0.95375 0.236495 -0.205356 0.915814 0.345129 
-0.396726 0.720837 0.568333 0.683434 0.530181 0.501823 0.72119 0.503601 0.47568 
0.86926 0.43369 0.237275 -0.830715 0.49044 0.263402 0.890156 0.409937 0.198933 
-0.755387 0.316699 0.573666 -0.854979 0.461645 0.236421 -0.901102 0.383184 0.202941 
0.891418 0.344211 0.294777 0.858443 0.28294 0.427809 0.899855 0.291508 0.324474 
-0.968747 -0.103697 0.225337 0.829002 -0.284117 0.481698 0.916574 -0.287835 0.277568 
-0.699381 -0.636595 0.324983 -0.709744 -0.633592 0.307937 0.280076 -0.493412 0.823469 
0.474579 -0.551009 0.686414 0.714175 -0.558434 0.422026 0.868435 -0.405742 0.284945 
-0.69997 -0.645049 0.306518 -0.677382 -0.710149 0.191943 -0.703481 -0.679022 0.209868 
0.25384 -0.492154 0.832676 0.266764 -0.615805 0.741364 0.267533 -0.664752 0.697518 
0.458769 -0.673467 0.579632 0.573898 -0.615044 0.540704 -0.457346 -0.802752 0.382653 
-0.534851 -0.792714 0.292471 0.254026 -0.754989 0.604535 0.276538 -0.772564 0.571553 
0.338774 -0.695668 0.633466 0.287134 -0.743339 0.604153 -0.480689 -0.824188 0.299418 
0.223266 -0.809871 0.542458 -0.0398251 0.717269 0.695658 -0.117861 0.838375 0.532199 
-0.563187 0.750114 0.346625 0.625973 0.49783 0.600269 0.614105 0.51789 0.595537 
0.65302 0.484765 0.581865 -0.42821 0.70635 0.563653 -0.648712 0.694197 0.311871 
-0.459402 0.765759 0.450069 0.724499 0.427165 0.540955 0.890877 0.203278 0.406221 
-0.522996 0.823878 0.218402 -0.626146 0.683614 0.374984 -0.282142 0.909401 0.305593 
-0.421804 0.794115 0.437564 0.969164 0.208835 0.1308 -0.762147 0.412059 0.499339 
-0.759357 0.41158 0.503963 -0.76048 0.409086 0.5043 0.899651 0.43661 -0 
-0.953854 0.234813 0.18715 0.912113 0.409549 -0.0178684 0.953183 0.300599 -0.0328914 
-0.995149 -0.0941873 0.0284206 0.952028 -0.300234 -0.0591795 -0.778757 -0.623134 0.072398 
0.859783 -0.507601 0.0558071 0.90215 -0.43084 -0.0224191 -0.707066 -0.703616 0.0705789 
-0.681407 -0.731638 0.0197536 -0.730104 -0.682949 0.0229893 0.629172 -0.685401 0.366561 
0.72516 -0.67396 0.141145 -0.689659 -0.722843 0.043235 0.430132 -0.810056 0.398492 
0.44191 -0.8517 0.281643 0.443202 -0.872074 0.207507 0.656522 -0.740881 0.141682 
-0.603181 -0.79617 0.047816 0.0236091 -0.981665 0.189147 0.422086 -0.852808 0.307509 
-0.377426 0.83031 0.410044 -0.661475 0.749921 -0.00837864 0.465118 0.744667 0.478682 
0.887937 0.325846 0.324643 -0.377984 0.860407 0.3418 -0.395785 0.856556 0.331158 
-0.40723 0.859103 0.310011 -0.4188 0.798942 0.431623 -0.37006 0.887902 0.273288 
-0.657474 0.753345 -0.0140751 0.94391 0.0337546 0.328474 -0.505817 0.676742 0.534948 
-0.376219 0.821847 0.427816 -0.602443 0.616412 0.507048 -0.412274 0.888238 0.202639 
0.982132 0.029473 0.18587 -0.876028 -0.156219 0.456258 0.954772 0.289195 -0.069116 
-0.959072 -0.236097 0.15633 0.91433 0.264737 -0.306456 0.905431 0.240119 -0.350054 
-0.976387 -0.214223 -0.0278848 0.905431 -0.240119 -0.350054 -0.778757 -0.623134 -0.072398 
0.899176 -0.427174 -0.0948925 0.907158 -0.283303 -0.311132 -0.707066 -0.703616 -0.0705789 
-0.681407 -0.731638 -0.0197536 -0.731721 -0.681484 -0.0128011 0.748431 -0.663212 -0 
-0.705376 -0.708834 -0 0.487576 -0.871387 0.0543561 0.508169 -0.860745 0.0297016 
0.680775 -0.732493 -0 -0.624774 -0.780806 -0 -0.0374865 -0.99889 0.0285274 
0.416739 -0.906455 0.0683194 -0.376579 0.486647 0.788266 -0.247709 0.857621 0.450695 
-0.72024 0.402536 0.564995 0.453177 0.57516 0.681044 0.389213 0.836505 0.38571 
0.592726 0.65788 0.464618 -0.489474 -0.521341 0.699013 -0.700674 -0.545633 0.459718 
0.306913 -0.386486 0.869732 0.713412 0.233742 0.660612 0.701053 0.12558 0.701964 
0.713646 0.157733 0.682518 -0.535393 -0.75479 0.379007 -0.19293 -0.77185 0.605826 
0.493005 -0.156285 0.855874 -0.380538 0.829117 0.40958 -0.487957 0.746365 0.452589 
-0.704396 0.665623 0.246523 0.459923 0.756182 0.465467 0.499841 0.751547 0.430506 
0.71253 0.644931 0.276343 -0.692299 0.720746 -0.0353336 0.921508 0.373401 0.106747 
-0.414167 0.900859 0.130069 -0.463595 0.873092 0.150964 -0.26604 0.962092 0.0600142 
-0.631024 0.774821 -0.0382263 0.962245 0.081553 0.259681 -0.369855 0.916069 0.154998 
-0.808876 0.587474 -0.0243761 -0.43534 0.886698 0.155709 0.94971 -0.203655 0.237854 
-0.888049 -0.161408 0.430483 -0.932992 0.355574 -0.0556224 -0.977482 -0.191374 -0.0889079 
0.997157 -0.0685162 -0.031369 -0.969147 -0.233384 -0.079287 -0.939454 -0.340687 -0.0368712 
0.909261 0.206819 -0.361207 0.947256 0.0371774 -0.318313 -0.939438 -0.302728 -0.160661 
0.907906 -0.213597 -0.360669 0.945688 -0.0684584 -0.317786 -0.712911 -0.636419 -0.294497 
0.966389 -0.239927 -0.0923435 -0.703065 -0.647901 -0.293128 -0.703489 -0.693621 -0.154899 
-0.754999 -0.641222 -0.137153 0.770554 -0.637375 -0 -0.700904 -0.701049 -0.131393 
0.487053 -0.870453 -0.0713502 0.508169 -0.860745 -0.0297016 0.695147 -0.718867 -0 
-0.619103 -0.773719 -0.134426 -0.0371965 -0.991163 -0.127331 0.415649 -0.904084 -0.0993378 
-0.827582 0.292607 0.47905 -0.756253 0.477271 0.447541 -0.884418 0.284823 0.369703 
-0.116 0.865188 0.487847 0.254274 0.879609 0.402036 0.614885 0.634505 0.468317 
0.554774 0.700553 0.448833 0.607091 0.633209 0.480091 -0.780312 -0.543404 0.309556 
-0.785112 -0.544687 0.294815 0.769943 0.337092 0.541809 -0.772732 -0.562607 0.293867 
-0.553771 -0.81201 0.184332 -0.421227 -0.790857 0.443974 -0.546229 -0.79257 0.271048 
0.194658 -0.440996 0.876145 0.799356 0.176475 0.574358 0.775483 0.0378014 0.630235 
0.818711 0.0529787 0.571757 -0.571443 -0.755477 0.320479 -0.276025 -0.815383 0.508881 
-0.251493 -0.81045 0.529077 -0.0957832 -0.818089 0.567059 0.707976 -0.309649 0.634734 
-0.255164 -0.819498 0.513142 -0.464482 0.572849 0.675353 -0.39209 0.546394 0.740081 
-0.67852 0.418253 0.603884 0.526888 0.60122 0.600769 0.547198 0.563487 0.618915 
0.636255 0.525096 0.565202 -0.923886 0.351799 0.15057 0.930438 0.333604 0.151638 
-0.72071 0.693236 -0 0.935681 0.344939 -0.0742886 -0.316952 0.943204 0.0995389 
-0.375737 0.876601 0.300652 -0.240675 0.970606 -0 -0.646482 0.762929 -0 
0.965747 0.192334 -0.174182 0.987683 0.152044 -0.0369535 0.967197 0.179625 -0.179625 
-0.441783 0.799855 0.406276 -0.863971 0.449821 0.226307 -0.376731 0.863999 0.334035 
0.962574 -0.258567 -0.0812031 0.987683 0.0369535 -0.152044 -0.981266 -0.184265 -0.0562522 
-0.990319 -0.138811 -0 0.969144 -0.244572 -0.0307447 -0.935772 -0.341664 -0.0871576 