# vtk DataFile Version 4.0
vtk output
ASCII
DATASET POLYDATA
POINTS 158 float
-28 22 -18.2588 -28 20.4856 -18 -27.0918 22 -18 
-28.7572 22 -18 -28 22.2921 -18 -28 20.389 -16 
-26.9503 22 -16 -30 22 -16.1347 -30 21.9341 -16 
-30.1795 22 -16 -28 22.4112 -16 -30 22.0598 -16 
42 -22 -14.038 42 -22.0673 -14 42.0643 -22 -14 
41.9201 -22 -14 42 -21.8516 -14 -28 22 -15.6586 
-30 22 -15.9639 42 -22 -13.8077 38 18 -13.0326 
38 16.6025 -12 39.1883 18 -12 36 18 -12.4717 
36 17.3324 -12 35.487 18 -12 40 20 -12.16 
40 19.6452 -12 40.1473 20 -12 38 20 -13.1094 
36 20 -12.7536 34.9753 20 -12 40 20.9684 -12 
39.6608 22 -12 38 22 -12.667 36 22 -12.2684 
35.5871 22 -12 38 22.9012 -12 36 22.3121 -12 
38 16 -11.2047 38 15.4436 -10 38.9183 16 -10 
36 16 -10.4019 36 15.7763 -10 35.7317 16 -10 
40 18 -10.9546 40 17.1044 -10 40.6063 18 -10 
34.4452 18 -10 40.7978 20 -10 34.4509 20 -10 
40 21.8312 -10 39.7715 22 -10 35.8858 22 -10 
38 22.6528 -10 36 22.0843 -10 40 16 -8.46562 
40 15.7763 -8 40.2683 16 -8 38 15.116 -8 
36 15.6696 -8 35.6549 16 -8 41.3126 18 -8 
35.4067 18 -8 40.3873 20 -8 36 20 -8.83606 
37.9743 20 -8 36 18.7561 -8 40 20.3546 -8 
38 20.0156 -8 38 22 -9.38278 36 22 -9.92261 
40 16 -7.0202 39.0388 16 -6 38 15.7316 -6 
36 16 -7.32791 37.4323 16 -6 40 16.8213 -6 
40.4537 18 -6 36 18 -7.33255 37.5562 18 -6 
40 18.6356 -6 40 20 -7.4196 38 18.3702 -6 
38 20 -7.98306 38 16 -5.7412 40 18 -5.67034 
38 18 -5.7066 48 40 -5.17866 48 39.2215 -4 
48.354 40 -4 46 40 -4.55594 46 39.3279 -4 
45.5539 40 -4 48 41.787 -4 46 41.3625 -4 
48 40 -3.54633 46 40 -3.50873 60 -48 26.4471 
60 -49.6733 28 61.3967 -48 28 58 -48 26.7253 
58 -49.4266 28 56.8408 -48 28 60 -46 26.5825 
61.0428 -46 28 58 -46 26.8525 57.2982 -46 28 
60 -45.333 28 58 -45.4729 28 60 -50 28.8851 
60 -50.2835 30 60.668 -50 30 58.7678 -50 30 
62 -48 29 62 -48.9367 30 62.9183 -48 30 
58 -49.777 30 56.5013 -48 30 62 -47.0633 30 
61.1417 -46 30 56.8078 -46 30 60 -45.3328 30 
58 -45.2539 30 60 -50.319 32 61.0679 -50 32 
58.714 -50 32 62 -49.4251 32 63.3937 -48 32 
58 -49.6327 32 56.9106 -48 32 62 -47.1376 32 
60 -46.0183 32 60 -46 31.972 58.2814 -46 32 
57.9969 -46 32 58 -45.998 32 60 -50 32.7249 
62 -48 33.4983 60 -48 33.2914 58 -48 32.8092 
58 -46 32.002 2 24 33.8653 2 23.9327 34 
2.06902 24 34 1.96025 24 34 2 26 33.0694 
3.82122 26 34 1.86516 26 34 2 26.2498 34 
26 48 33.9489 26 47.9187 34 26.0346 48 34 
25.4601 48 34 26 48.8565 34 2 24 34.1231 
2 26 34.275 26 48 34.0643 
TRIANGLE_STRIPS 67 489
14 2 0 1 3 8 7 9 11 18 17 5 6 1 2 
6 0 2 4 10 11 17 
4 0 4 3 7 
4 1 8 5 18 
4 2 6 10 17 
3 7 4 11 
8 14 12 13 15 19 16 14 12 
3 15 12 16 
3 8 9 18 
3 13 19 14 
28 22 20 21 24 39 42 43 44 60 61 75 79 76 80 87 83 86 81 78 64 62 49 47 28 27 26 22 20 
18 24 20 23 30 31 36 50 53 71 55 70 54 52 33 51 32 28 26 
14 24 23 25 31 48 50 63 65 67 66 79 84 80 83 
9 20 26 29 34 35 37 38 55 53 
7 20 29 30 35 36 38 53 
4 32 33 34 37 
3 32 34 26 
5 41 39 40 43 60 
11 47 45 46 41 56 40 57 59 74 60 75 
5 41 45 39 22 21 
4 24 25 42 44 
4 25 48 44 61 
4 47 27 45 22 
8 28 49 51 68 69 82 84 83 
4 33 54 37 55 
10 56 57 58 72 78 77 86 85 87 76 
3 40 60 59 
4 56 58 46 47 
4 47 58 62 78 
4 48 63 61 79 
4 49 64 68 82 
4 70 52 69 51 
6 69 66 70 65 71 50 
4 57 73 72 77 
5 57 74 73 85 77 
4 75 76 74 85 
4 64 81 82 83 
3 63 67 79 
3 66 69 84 
11 90 88 89 92 97 93 95 91 94 88 90 
4 88 91 92 93 
5 90 89 96 97 95 
4 90 96 94 95 
31 100 98 99 102 117 103 118 107 121 109 123 108 122 105 120 100 119 114 116 115 128 127 138 137 139 140 141 130 135 121 123 
6 102 98 101 106 107 109 
4 102 101 103 107 
4 100 104 98 106 
6 100 105 104 108 106 109 
8 112 110 111 113 124 126 137 140 
6 114 112 115 125 127 137 
5 112 114 110 100 99 
4 113 110 117 99 
4 111 124 125 137 
3 112 111 125 
5 126 113 129 117 118 
5 118 130 129 140 126 
11 116 128 131 138 132 139 134 141 136 135 123 
9 116 131 119 132 120 133 122 136 123 
4 132 134 133 136 
3 118 121 130 
12 144 142 143 145 155 156 147 149 146 148 142 145 
4 142 144 146 147 
8 152 150 151 153 157 154 152 150 
3 153 150 154 
4 143 155 144 147 
4 145 148 156 149 
3 151 157 152 

POINT_DATA 158
SCALARS scalars unsigned_short
LOOKUP_TABLE default
1 1 1 1 1 1 1 1 1 
1 1 1 1 1 1 1 1 1 
1 1 1 1 1 1 1 1 1 
1 1 1 1 1 1 1 1 1 
1 1 1 1 1 1 1 1 1 
1 1 1 1 1 1 1 1 1 
1 1 1 1 1 1 1 1 1 
1 1 1 1 1 1 1 1 1 
1 1 1 1 1 1 1 1 1 
1 1 1 1 1 1 1 1 1 
1 1 1 1 1 1 1 1 1 
1 1 1 1 1 1 1 1 1 
1 1 1 1 1 1 1 1 1 
1 1 1 1 1 1 1 1 1 
1 1 1 1 1 1 1 1 1 
1 1 1 1 1 1 1 1 1 
1 1 1 1 1 1 1 1 1 
1 1 1 1 1 
NORMALS normals float
0.0466948 -0.51297 0.857136 0.290869 0.550814 0.782304 -0.358422 -0.586591 0.726254 
0.255573 -0.420537 0.870535 0.0145275 -0.64639 0.762869 0.170095 0.650447 -0.740261 
-0.510415 -0.542984 -0.666817 0.567316 -0.0869103 -0.818901 0.467858 -0.0112662 -0.883732 
0.495107 -0.121392 -0.86031 -0.195988 -0.671703 -0.714426 0.461855 -0.11506 -0.879461 
-0.129869 0.345676 0.929323 -0.130155 0.391216 0.911049 -0.178336 0.34982 0.919686 
-0.0669135 0.36585 0.928265 -0.148615 0.234571 0.960672 -0.134704 -0.455717 -0.879873 
0.450673 -0.0640092 -0.890391 -0.108516 0.421618 0.900257 -0.214673 0.351378 0.91129 
-0.230909 0.708403 0.666968 -0.598884 0.455546 0.658647 0.536835 0.384821 0.750813 
0.518552 0.517503 0.680658 0.611285 0.411214 0.676191 -0.757438 0.118681 0.64203 
-0.769734 0.17996 0.612473 -0.783626 0.125155 0.608496 -0.130214 -0.124102 0.983689 
0.515031 -0.0563588 0.855317 0.767718 0.0211555 0.640439 -0.794855 -0.150692 0.58779 
-0.664805 -0.526498 0.529938 -0.103598 -0.576132 0.810765 0.493299 -0.640548 0.588519 
0.593279 -0.641678 0.486076 -0.0981777 -0.867245 0.488106 0.507756 -0.718588 0.475201 
-0.214943 0.828103 0.517731 -0.210808 0.91671 0.339415 -0.438691 0.793229 0.422301 
0.501812 0.786415 0.360189 0.494745 0.817969 0.293521 0.551635 0.783347 0.286474 
-0.760688 0.400501 0.510836 -0.725454 0.510465 0.461673 -0.816203 0.34334 0.464684 
0.949548 0.312956 0.0204154 -0.979563 -0.176229 0.0969526 0.906809 -0.280325 -0.314826 
-0.679928 -0.667512 -0.303523 -0.590596 -0.720936 -0.362557 0.476416 -0.713256 -0.514095 
-0.0352728 -0.846726 -0.530859 0.458588 -0.724613 -0.514426 -0.640125 0.740981 0.202947 
-0.611252 0.781825 0.122962 -0.656903 0.743252 0.12671 -0.0367283 0.997341 -0.062948 
0.704202 0.675787 -0.217743 0.78557 0.5718 -0.236485 -0.998241 0.0555238 0.0207834 
0.762403 -0.226868 -0.606031 -0.480762 -0.766286 -0.426232 0.483337 -0.509634 -0.7118 
0.2603 -0.684314 -0.681145 0.594774 -0.396863 -0.699102 -0.342479 -0.795525 -0.499848 
0.257812 -0.68575 -0.680647 0.00623432 -0.757452 -0.652861 0.457628 -0.713026 -0.531197 
-0.629965 0.746402 -0.214541 -0.238788 0.627959 -0.740708 0.106263 0.621515 -0.776162 
0.757859 0.510382 -0.4064 0.285351 0.494255 -0.821149 -0.534895 0.34289 -0.772213 
-0.51748 -0.122456 -0.846888 0.689814 -0.328054 -0.645397 0.413508 -0.396604 -0.819583 
-0.342312 -0.34576 -0.873655 -0.295326 -0.784067 -0.545914 0.360512 -0.455057 -0.81422 
0.259747 -0.686401 -0.679253 0.111341 0.524186 -0.844294 -0.380258 -0.132557 -0.915332 
0.328985 -0.369984 -0.868839 -0.785206 0.126512 0.606174 -0.728976 0.528264 -0.435352 
-0.910286 0.188654 -0.368495 0.908102 0.208914 0.362914 0.771286 0.618962 -0.148341 
0.970818 0.234914 -0.0482478 -0.667094 -0.743856 -0.0407918 0.753999 -0.634371 0.170464 
-0.763289 0.275313 -0.584459 0.784946 0.391851 -0.479909 -0.342291 0.343804 0.874434 
-0.30899 0.789788 0.529868 -0.74485 0.235365 0.624342 0.462513 0.341964 0.818011 
0.475106 0.733669 0.485803 0.841727 0.246022 0.480591 -0.372953 -0.586803 0.718727 
-0.667622 -0.666534 0.331683 0.493317 -0.608218 0.621859 0.656574 -0.664182 0.357452 
-0.302496 -0.918687 0.253989 0.450456 -0.835028 0.315938 -0.203019 0.914981 0.348702 
-0.105579 0.98363 0.146033 -0.218794 0.950654 0.219969 0.288219 0.952468 0.0986658 
-0.839586 0.115075 0.530899 -0.747177 0.481544 0.458084 -0.869806 -0.0962002 0.483925 
0.530753 0.84611 0.0489806 0.949946 0.312414 0.000884869 -0.873568 -0.446822 0.192949 
-0.568991 -0.812312 -0.128054 0.746276 -0.657872 -0.101374 -0.332742 -0.926681 -0.174771 
0.3029 -0.944055 -0.130425 -0.0384672 0.96849 -0.246064 -0.280451 0.950736 -0.13209 
0.335909 0.894374 -0.295398 -0.637631 0.765392 -0.0871822 -0.95807 -0.228629 -0.172717 
0.556796 0.723495 -0.408084 0.80027 0.0547711 -0.597133 -0.634781 -0.684416 -0.358647 
-0.230201 -0.76105 -0.606473 -0.233351 -0.766021 -0.598965 0.229562 -0.690669 -0.685768 
0.302597 -0.663218 -0.684527 0.301938 -0.663601 -0.684447 0.0497985 0.852278 -0.520713 
-0.227866 -0.412155 -0.882159 0.184309 -0.259686 -0.947942 0.467763 -0.0509001 -0.882387 
0.301988 -0.663219 -0.684795 0.526706 0.849752 0.0224349 0.521288 0.853197 -0.0177308 
0.479225 0.87664 -0.0429506 0.577328 0.815715 -0.0360707 0.889718 -0.453806 0.0496206 
-0.735152 0.0230003 -0.677512 0.858435 -0.417451 -0.298034 0.790422 -0.523572 -0.317971 
-0.909585 0.380314 0.167381 -0.904421 0.406149 0.130635 -0.918357 0.371761 0.135698 
-0.747144 0.638422 0.184913 -0.998177 0.000244921 -0.0603491 0.544423 0.826792 -0.141487 
0.766186 -0.474353 -0.43353 -0.92114 0.377791 0.0936786 
