# vtk DataFile Version 4.0
vtk output
ASCII
DATASET POLYDATA
POINTS 6946 float
0 -26 -24.1981 0 -26.2301 -24 0.370011 -26 -24 
-2 -26 -24.0025 -2 -26.0079 -24 -2.00263 -26 -24 
0 -24 -24.3058 1.17243 -24 -24 -0.648284 -24 -24 
-2 -25.9939 -24 0 -23.1008 -24 2 -12 -24.6528 
2 -13.425 -24 3.67465 -12 -24 0 -12 -24.2935 
0 -12.7025 -24 -0.42033 -12 -24 2 -10 -24.002 
2.00351 -10 -24 1.98813 -10 -24 0 -11.1176 -24 
2 -9.99797 -24 24 -4 -24.7926 24 -5.18341 -24 
25.8261 -4 -24 22 -4 -25.2417 22 -5.64783 -24 
20 -4 -24.0944 20 -4.11055 -24 19.9136 -4 -24 
24 -2 -24.5469 24.9438 -2 -24 22 -2 -24.9486 
20.2115 -2 -24 20 -3.25946 -24 24 -1 -24 
22 -0.191345 -24 2 -26 -23.0508 2 -26.7793 -22 
2.9775 -26 -22 0 -26.996 -22 -2 -27.1755 -22 
-3.21233 -26 -22 4 -24 -22.7337 4 -25.0097 -22 
5 -24 -22 2 -24 -23.7723 -2 -24 -23.3525 
-3.73969 -24 -22 6 -22 -22.5261 6 -22.8713 -22 
6.71931 -22 -22 4 -22 -23.4856 2 -22 -23.7205 
0 -22 -23.5901 -2 -22 -22.8921 -4 -23.0712 -22 
-4 -22 -22.205 -4.32935 -22 -22 6 -20 -22.775 
7.09107 -20 -22 4 -20 -23.465 2 -20 -23.1598 
0 -20 -22.4628 -2 -20 -22.3421 -4 -20 -22.4638 
-5.08705 -20 -22 6 -18 -22.9001 7.46725 -18 -22 
4 -18 -23.4492 2 -18 -23.0187 0 -18 -22.4516 
-2 -18 -22.4141 -4 -18 -22.6198 -6 -18.3763 -22 
-6 -18 -22.1069 -6.32588 -18 -22 8 -16 -22.0339 
8 -16.1555 -22 8.04154 -16 -22 6 -16 -23.1175 
4 -16 -23.2627 2 -16 -22.7867 0 -16 -22.1679 
-2 -16 -22.3204 -4 -16 -22.4638 -5.41922 -16 -22 
-6 -17.3553 -22 8 -15.9202 -22 7.06976 -14 -22 
6 -14 -23.0117 4 -14 -23.4895 2 -14 -23.1796 
1.05425 -14 -22 0 -15.563 -22 -2 -14.2292 -22 
-4 -14.0419 -22 6 -12.4973 -22 5.63337 -12 -22 
4 -12 -23.8227 0.438191 -12 -22 0 -12 -23.0802 
4 -10 -22.3572 4.29527 -10 -22 0.774417 -10 -22 
4 -9.7682 -22 2 -9.38477 -22 26 -6 -22.297 
26 -6.24458 -22 26.6161 -6 -22 24 -6 -23.2213 
24 -6.79105 -22 22 -6 -23.3511 22 -6.48576 -22 
21.1696 -6 -22 28 -4 -22.4791 28 -4.60233 -22 
28.9341 -4 -22 26 -4 -23.8858 20 -5.09045 -22 
18.7626 -4 -22 28 -3.32864 -22 27.4765 -2 -22 
26 -2 -23.2702 20 -2 -23.744 19.0511 -2 -22 
26 0 -22.4208 26.641 0 -22 24 0 -23.4531 
22 0 -23.8765 20 0 -22.2826 19.8065 0 -22 
26 0.795944 -22 24.6 2 -22 24 2 -22.2946 
22 2 -22.4717 21.2465 2 -22 20 0.397446 -22 
-16 2 -22.0594 -16 1.76128 -22 -15.7083 2 -22 
-16.3529 2 -22 24 2.32021 -22 22 2.51303 -22 
-16 2.19489 -22 -18 6 -22.3248 -18 5.10616 -22 
-17 6 -22 -18.8157 6 -22 -12 8 -22.1421 
-12 7.7668 -22 -11.7668 8 -22 -14 8 -22.5997 
-14 7 -22 -16 8 -22.9001 -16 6.45369 -22 
-18 8 -22.9462 -18.8991 8 -22 -12 10 -22.5997 
-11.0477 10 -22 -14 10 -23 -16 10 -23.1808 
-18 10 -22.7016 -18.4671 10 -22 -12 12 -22.0746 
-11.8894 12 -22 -14 12 -22.3378 -16 12 -22.0226 
-16.0416 12 -22 -18 10.9904 -22 -12 12.0944 -22 
-14 12.3176 -22 -16 12.0113 -22 20 28 -22.6925 
20 27.14 -22 20.656 28 -22 18 28 -22.382 
18 27.2751 -22 17.6549 28 -22 20 29.7465 -22 
18 28.8751 -22 -20 34 -22.3631 -20 33.2802 -22 
-18.4743 34 -22 -21.1764 34 -22 -20 36 -22.0313 
-19.8878 36 -22 -20.0995 36 -22 -20 36.0594 -22 
4 -26 -20.8809 4 -26.498 -20 4.93666 -26 -20 
2 -26.9191 -20 0 -26.6366 -20 -2 -26.3248 -20 
-2.72561 -26 -20 8 -24 -20.4208 8 -24.5506 -20 
8.7398 -24 -20 6 -24 -21.2934 6 -25.3525 -20 
-4 -25.4067 -20 -4 -24 -21.7397 -6 -24 -20.0733 
-6 -24.0826 -20 -6.07273 -24 -20 10 -22 -20.2835 
10 -22.5694 -20 10.3702 -22 -20 8 -22 -21.209 
-6 -22 -20.9663 -7.39588 -22 -20 10 -20 -20.5997 
10.8267 -20 -20 8 -20 -21.4003 -6 -20 -21.5792 
-8 -21.3904 -20 -8 -20 -20.8825 -10 -20 -20.3248 
-10 -20.3702 -20 -10.3873 -20 -20 10 -18 -20.6841 
10.8734 -18 -20 8 -18 -21.6606 -8 -18 -21.5211 
-10 -18 -21.2175 -11.4634 -18 -20 10 -16 -20.4717 
10.513 -16 -20 -6 -16 -21.7878 -8 -16 -21.3582 
-10 -16 -21.1844 -12 -16.8081 -20 -12 -16 -20.306 
-12.3378 -16 -20 10 -15.2957 -20 8 -14 -21.053 
9 -14 -20 2 -14 -21.1321 2.45159 -14 -20 
2 -14.9117 -20 0 -15.7614 -20 -2 -14 -21.8936 
-1.22977 -14 -20 -4 -14 -21.9863 -6 -14 -20.9176 
-8 -14 -20.715 -10 -14 -21.1161 -12 -14 -20.5392 
-12.5393 -14 -20 8 -12.772 -20 6 -12 -21.6431 
7.42962 -12 -20 2 -12 -20.2474 2.15996 -12 -20 
-2 -13.0291 -20 -4 -12.2141 -20 -6 -13.1157 -20 
-8 -13.1733 -20 -9.59359 -12 -20 -10 -12 -20.3868 
-11.252 -12 -20 -12 -12.4336 -20 6 -10 -20.1971 
6.18794 -10 -20 2 -10.6723 -20 1.90563 -10 -20 
-10 -11.7412 -20 6 -9.84718 -20 4 -9.22415 -20 
2 -9.91205 -20 28 -6 -20.5753 28 -6.26544 -20 
28.733 -6 -20 26 -7.32127 -20 24 -7.33641 -20 
22 -6.42082 -20 21.3241 -6 -20 30 -4 -21.2685 
30 -5.09978 -20 30.4765 -4 -20 20 -5.22231 -20 
18 -4 -20.4871 18 -4.2016 -20 17.8059 -4 -20 
30 -2 -20.4913 30.725 -2 -20 28 -2 -21.5423 
18 -2 -20.5671 17.6491 -2 -20 -14 -2 -20.3546 
-14 -2.45369 -20 -13.6127 -2 -20 -16 -2 -21.0831 
-16 -3.25574 -20 -18 -2 -20.3935 -18 -2.66118 -20 
-20 -2 -20.5691 -20 -3.28178 -20 -22 -2 -20.5261 
-22 -3.01262 -20 -23.2001 -2 -20 30 0 -20.6261 
31.2956 0 -20 28 0 -21.209 18.4545 0 -20 
18 -1.08757 -20 -14 0 -21.0366 -12.776 0 -20 
-16 0 -21.5792 -18 0 -21.2074 -20 0 -21 
-22 0 -20.3446 -22.339 0 -20 30 1.79541 -20 
29.792 2 -20 28 2 -20.6632 26 2 -21.3411 
20 2 -21.184 18.7881 2 -20 -12 2 -20.4019 
-12 1.26572 -20 -11.5167 2 -20 -14 2 -21.6456 
-18 2 -21.7381 -20 2 -21.2474 -21.8483 2 -20 
-22 1.341 -20 28 2.75813 -20 26 3.59009 -20 
24 3.96611 -20 22 4 -20.5704 23.8878 4 -20 
20 4 -20.2842 19.5027 4 -20 -12 4 -20.6841 
-11 4 -20 -14 4 -21.2941 -16 4 -21.5142 
-18 4 -21.6606 -20 4 -21.3181 -21.7468 4 -20 
22 4.65024 -20 20 4.57486 -20 -12 6 -21 
-10.2332 6 -20 -14 6 -21.4003 -16 6 -21.7165 
-20 6 -21.2403 -20.7304 6 -20 18 8 -20.0594 
18 7.84445 -20 18.1202 8 -20 16 8 -20.3394 
16 7.31406 -20 14 8 -20.3631 14 7.28015 -20 
12.4743 8 -20 -8 8 -20.0746 -8 7.87469 -20 
-7.8951 8 -20 -10 8 -21 -10 6.2332 -20 
-19.3817 8 -20 -20 7 -20 18 8.65085 -20 
17 10 -20 16 10 -20.1211 14 10 -20.3394 
13 10 -20 -8 10 -20.1473 -7.83346 10 -20 
-10 10 -21.3159 -18.6672 10 -20 16 10.3657 -20 
14.1949 12 -20 14 12 -20.0594 13.8445 12 -20 
-8 10.2978 -20 -9.04513 12 -20 -10 12 -20.7526 
-17 12 -20 -18 11.027 -20 14 14 -20.3394 
15 14 -20 13 14 -20 -10 13.0496 -20 
-12 14 -20.2248 -11.57 14 -20 -12.9288 14 -20 
-14 13.7702 -20 -16 12.7804 -20 38 16 -20.4858 
38 15.29 -20 39.8658 16 -20 36 16 -20.5997 
36 15.1733 -20 34.0312 16 -20 16 16 -20.3509 
16 15 -20 16.7135 16 -20 14 16 -20.6867 
12 15.8445 -20 12 16 -20.0313 11.9477 16 -20 
-12 14.2248 -20 38 18 -20.4638 39.4762 18 -20 
36 18 -20.9141 34 16.0346 -20 34 18 -20.5741 
33.2617 18 -20 16 17.941 -20 15.7327 18 -20 
14 18 -20.0774 13.8232 18 -20 12 16.0798 -20 
38 19.8878 -20 37.9406 20 -20 36 20 -20.8049 
34 20 -20.884 32 19.7668 -20 32 20 -20.1473 
31.8029 20 -20 14 18.0902 -20 36 22 -20.7461 
37.7791 22 -20 34 22 -20.9448 32 22 -20.6183 
30.8388 22 -20 36 23.5409 -20 35.1038 24 -20 
34 24 -20.3427 32 24 -20.4701 30.4086 24 -20 
34 24.4664 -20 32 25.2674 -20 22 26 -20.0441 
22 25.5137 -20 22.3126 26 -20 20 26 -21.0936 
20 24.6676 -20 18 26 -21.1032 18 25.1376 -20 
17.056 26 -20 22 28 -20.6228 23 28 -20 
16.4474 28 -20 22 29.9581 -20 20 30 -21.812 
21.972 30 -20 18 30 -20.5317 17.6183 30 -20 
-18 30 -20.0774 -18 29.9226 -20 -17.8372 30 -20 
-20 30 -20.3984 -20 29.6016 -20 -22 30 -20.0774 
-22 29.9226 -20 -22.1387 30 -20 20 30.6672 -20 
18 30.18 -20 -16 32 -20.5469 -16 31.1594 -20 
-15.1151 32 -20 -18 32 -21.209 -20 32 -21.4003 
-22 32 -21.1175 -24 31.9381 -20 -24 32 -20.0339 
-24.0415 32 -20 -14 34 -20.2237 -14 33.5344 -20 
-13.7072 34 -20 -16 34 -21.1094 -18 34 -21.8789 
-22 34 -21.7005 -24 34 -20.1393 -24.1687 34 -20 
6 36 -20.3868 6 35.671 -20 6.5315 36 -20 
4 36 -20.3293 4 35.7056 -20 2 36 -20.1508 
2 35.8525 -20 1.75632 36 -20 -14 36 -20.2934 
-13.5904 36 -20 -16 36 -21 -18 36 -21.5362 
-22 36 -21.4531 -24 36 -20.5469 -24.8849 36 -20 
28 38 -20.0804 28 37.8819 -20 28.0902 38 -20 
26 38 -20.1941 26 37.5129 -20 25.7984 38 -20 
8 38 -20.5276 8 37.1612 -20 9.07451 38 -20 
6 38 -20.9863 4 38 -20.7787 2.47624 38 -20 
2 36.5622 -20 -14 37.9825 -20 -14.0048 38 -20 
-16 38 -20.9688 -18 38 -21.1775 -20 38 -21.1951 
-22 38 -21.0859 -24 38 -20.9141 -26 37.3246 -20 
-26 38 -20.361 -26.5055 38 -20 28 40 -20.667 
28.9012 40 -20 26 40 -20.3984 25.5693 40 -20 
10 40 -21.1998 10 38.6759 -20 11.1506 40 -20 
8 40 -21.2464 6 40 -20.9731 4 40 -20.6084 
3 40 -20 -16 40 -20.8428 -14.8772 40 -20 
-18 40 -21.0828 -20 40 -21 -22 40 -21 
-24 40 -21 -26 40 -20.7461 -27.1922 40 -20 
28 41.6608 -20 26 41.1434 -20 10 42 -21.6532 
11.2298 42 -20 8 42 -21.3817 6 42 -21 
4 42 -20.5997 3.04771 42 -20 -16 40.8784 -20 
-17.0911 42 -20 -18 42 -20.6632 -20 42 -21 
-22 42 -21 -24 42 -20.9141 -26 42 -20.4141 
-26.6345 42 -20 10 44 -20.4438 10.3435 44 -20 
8 44 -20.8009 6 44 -20.5997 4 44 -20.205 
3.67065 44 -20 -18 43.6444 -20 -18.2713 44 -20 
-20 44 -20.812 -22 44 -20.884 -24 44 -20.4638 
-24.9367 44 -20 -26 42.8648 -20 10 44.9532 -20 
8 45.7335 -20 6 45 -20 4 44.3738 -20 
-20 45.3975 -20 -22 45.8645 -20 -24 44.7795 -20 
6 52 -20.0218 6 51.9647 -20 6.04536 52 -20 
4 52 -20.2683 4 51.6344 -20 3.35912 52 -20 
6 52.0978 -20 4 53.4102 -20 8 -26 -18.7091 
8 -26.5564 -18 9.58626 -26 -18 6 -26 -19.1834 
6 -26.7059 -18 4 -26.9141 -18 2 -26.7059 -18 
0 -26 -18.4873 0.398384 -26 -18 -2 -26 -19.5154 
10 -24 -19.2196 10 -25.7518 -18 11.2196 -24 -18 
0 -25.795 -18 -2 -25.209 -18 -4 -25.0999 -18 
-6 -25.1592 -18 -7.77802 -24 -18 12 -22 -18.3702 
12 -22.5694 -18 12.2835 -22 -18 -8 -23.8277 -18 
-8 -22 -19.5175 -10 -22 -18.4389 -10 -22.4389 -18 
-10.4582 -22 -18 12 -20 -18.8734 12.6841 -20 -18 
-12 -20 -18.2072 -12 -20.2072 -18 -12.1421 -20 -18 
12 -18 -18.924 12.7926 -18 -18 -12 -18 -19.3959 
-12.9001 -18 -18 12 -16 -18.4389 12.3654 -16 -18 
-13.3823 -16 -18 12 -15.4202 -18 10 -14 -19 
10.9592 -14 -18 2.66718 -14 -18 2 -14.9818 -18 
0 -15.4266 -18 -0.902586 -14 -18 -13.1951 -14 -18 
10 -12.772 -18 8 -12 -19.4296 9.42962 -12 -18 
2.55635 -12 -18 -2 -12 -18.5694 -1.62292 -12 -18 
-4 -12 -19.6 -5.56793 -12 -18 -6 -12.205 -18 
-8 -12.205 -18 -8.39838 -12 -18 -12 -12 -19.4574 
[...]
POINT_DATA 6946
SCALARS scalars unsigned_short
LOOKUP_TABLE default
1 1 1 1 1 1 1 1 1 
1 1 1 1 1 1 1 1 1 
1 1 1 1 1 1 1 1 1 
1 1 1 1 1 1 1 1 1 
1 1 1 1 1 1 1 1 1 
1 1 1 1 1 1 1 1 1 
1 1 1 1 1 1 1 1 1 
1 1 1 1 1 1 1 1 1 
1 1 1 1 1 1 1 1 1 
1 1 1 1 1 1 1 1 1 
1 1 1 1 1 1 1 1 1 
1 1 1 1 1 1 1 1 1 
1 1 1 1 1 1 1 1 1 
1 1 1 1 1 1 1 1 1 
1 1 1 1 1 1 1 1 1 
1 1 1 1 1 1 1 1 1 
1 1 1 1 1 1 1 1 1 
1 1 1 1 1 1 1 1 1 
1 1 1 1 1 1 1 1 1 
1 1 1 1 1 1 1 1 1 
1 1 1 1 1 1 1 1 1 
1 1 1 1 1 1 1 1 1 
1 1 1 1 1 1 1 1 1 
1 1 1 1 1 1 1 1 1 
1 1 1 1 1 1 1 1 1 
1 1 1 1 1 1 1 1 1 
1 1 1 1 1 1 1 1 1 
1 1 1 1 1 1 1 1 1 
1 1 1 1 1 1 1 1 1 
1 1 1 1 1 1 1 1 1 
1 1 1 1 1 1 1 1 1 
1 1 1 1 1 1 1 1 1 
1 1 1 1 1 1 1 1 1 
1 1 1 1 1 1 1 1 1 
1 1 1 1 1 1 1 1 1 
1 1 1 1 1 1 1 1 1 
1 1 1 1 1 1 1 1 1 
1 1 1 1 1 1 1 1 1 
1 1 1 1 1 1 1 1 1 
1 1 1 1 1 1 1 1 1 
1 1 1 1 1 1 1 1 1 
1 1 1 1 1 1 1 1 1 
1 1 1 1 1 1 1 1 1 
1 1 1 1 1 1 1 1 1 
1 1 1 1 1 1 1 1 1 
1 1 1 1 1 1 1 1 1 
1 1 1 1 1 1 1 1 1 
1 1 1 1 1 1 1 1 1 
1 1 1 1 1 1 1 1 1 
1 1 1 1 1 1 1 1 1 
1 1 1 1 1 1 1 1 1 
1 1 1 1 1 1 1 1 1 
1 1 1 1 1 1 1 1 1 
1 1 1 1 1 1 1 1 1 
1 1 1 1 1 1 1 1 1 
1 1 1 1 1 1 1 1 1 
1 1 1 1 1 1 1 1 1 
1 1 1 1 1 1 1 1 1 
1 1 1 1 1 1 1 1 1 
1 1 1 1 1 1 1 1 1 
1 1 1 1 1 1 1 1 1 
1 1 1 1 1 1 1 1 1 
1 1 1 1 1 1 1 1 1 
1 1 1 1 1 1 1 1 1 
1 1 1 1 1 1 1 1 1 
1 1 1 1 1 1 1 1 1 
1 1 1 1 1 1 1 1 1 
1 1 1 1 1 1 1 1 1 
1 1 1 1 1 1 1 1 1 
1 1 1 1 1 1 1 1 1 
1 1 1 1 1 1 1 1 1 
1 1 1 1 1 1 1 1 1 
1 1 1 1 1 1 1 1 1 
1 1 1 1 1 1 1 1 1 
1 1 1 1 1 1 1 1 1 
1 1 1 1 1 1 1 1 1 
1 1 1 1 1 1 1 1 1 
1 1 1 1 1 1 1 1 1 
1 1 1 1 1 1 1 1 1 
1 1 1 1 1 1 1 1 1 
1 1 1 1 1 1 1 1 1 
1 1 1 1 1 1 1 1 1 
1 1 1 1 1 1 1 1 1 
1 1 1 1 1 1 1 1 1 
1 1 1 1 1 1 1 1 1 
1 1 1 1 1 1 1 1 1 
1 1 1 1 1 1 1 1 1 
1 1 1 1 1 1 1 1 1 
1 1 1 1 1 1 1 1 1 
1 1 1 1 1 1 1 1 1 
1 1 1 1 1 1 1 1 1 
1 1 1 1 1 1 1 1 1 
1 1 1 1 1 1 1 1 1 
1 1 1 1 1 1 1 1 1 
1 1 1 1 1 1 1 1 1 
1 1 1 1 1 1 1 1 1 
1 1 1 1 1 1 1 1 1 
1 1 1 1 1 1 1 1 1 
1 1 1 1 1 1 1 1 1 
1 1 1 1 1 1 1 1 1 
1 1 1 1 1 1 1 1 1 
1 1 1 1 1 1 1 1 1 
1 1 1 1 1 1 1 1 1 
1 1 1 1 1 1 1 1 1 
1 1 1 1 1 1 1 1 1 
1 1 1 1 1 1 1 1 1 
1 1 1 1 1 1 1 1 1 
1 1 1 1 1 1 1 1 1 
1 1 1 1 1 1 1 1 1 
1 1 1 1 1 1 1 1 1 
1 1 1 1 1 1 1 1 1 
1 1 1 1 1 1 1 1 1 
1 1 1 1 1 1 1 1 1 
1 1 1 1 1 1 1 1 1 
1 1 1 1 1 1 1 1 1 
1 1 1 1 1 1 1 1 1 
1 1 1 1 1 1 1 1 1 
1 1 1 1 1 1 1 1 1 
1 1 1 1 1 1 1 1 1 
1 1 1 1 1 1 1 1 1 
1 1 1 1 1 1 1 1 1 
1 1 1 1 1 1 1 1 1 
1 1 1 1 1 1 1 1 1 
1 1 1 1 1 1 1 1 1 
1 1 1 1 1 1 1 1 1 
1 1 1 1 1 1 1 1 1 
1 1 1 1 1 1 1 1 1 
1 1 1 1 1 1 1 1 1 
1 1 1 1 1 1 1 1 1 
1 1 1 1 1 1 1 1 1 
1 1 1 1 1 1 1 1 1 
1 1 1 1 1 1 1 1 1 
1 1 1 1 1 1 1 1 1 
1 1 1 1 1 1 1 1 1 
1 1 1 1 1 1 1 1 1 
1 1 1 1 1 1 1 1 1 
1 1 1 1 1 1 1 1 1 
1 1 1 1 1 1 1 1 1 
1 1 1 1 1 1 1 1 1 
1 1 1 1 1 1 1 1 1 
1 1 1 1 1 1 1 1 1 
1 1 1 1 1 1 1 1 1 
1 1 1 1 1 1 1 1 1 
1 1 1 1 1 1 1 1 1 
1 1 1 1 1 1 1 1 1 
1 1 1 1 1 1 1 1 1 
1 1 1 1 1 1 1 1 1 
1 1 1 1 1 1 1 1 1 
1 1 1 1 1 1 1 1 1 
1 1 1 1 1 1 1 1 1 
1 1 1 1 1 1 1 1 1 
1 1 1 1 1 1 1 1 1 
1 1 1 1 1 1 1 1 1 
1 1 1 1 1 1 1 1 1 
1 1 1 1 1 1 1 1 1 
1 1 1 1 1 1 1 1 1 
1 1 1 1 1 1 1 1 1 
1 1 1 1 1 1 1 1 1 
1 1 1 1 1 1 1 1 1 
1 1 1 1 1 1 1 1 1 
1 1 1 1 1 1 1 1 1 
1 1 1 1 1 1 1 1 1 
1 1 1 1 1 1 1 1 1 
1 1 1 1 1 1 1 1 1 
1 1 1 1 1 1 1 1 1 
1 1 1 1 1 1 1 1 1 
1 1 1 1 1 1 1 1 1 
1 1 1 1 1 1 1 1 1 
1 1 1 1 1 1 1 1 1 
1 1 1 1 1 1 1 1 1 
1 1 1 1 1 1 1 1 1 
1 1 1 1 1 1 1 1 1 
1 1 1 1 1 1 1 1 1 
1 1 1 1 1 1 1 1 1 
1 1 1 1 1 1 1 1 1 
1 1 1 1 1 1 1 1 1 
1 1 1 1 1 1 1 1 1 
1 1 1 1 1 1 1 1 1 
1 1 1 1 1 1 1 1 1 
1 1 1 1 1 1 1 1 1 
1 1 1 1 1 1 1 1 1 
1 1 1 1 1 1 1 1 1 
1 1 1 1 1 1 1 1 1 
1 1 1 1 1 1 1 1 1 
1 1 1 1 1 1 1 1 1 
1 1 1 1 1 1 1 1 1 
1 1 1 1 1 1 1 1 1 
1 1 1 1 1 1 1 1 1 
1 1 1 1 1 1 1 1 1 
1 1 1 1 1 1 1 1 1 
1 1 1 1 1 1 1 1 1 
1 1 1 1 1 1 1 1 1 
1 1 1 1 1 1 1 1 1 
1 1 1 1 1 1 1 1 1 
1 1 1 1 1 1 1 1 1 
1 1 1 1 1 1 1 1 1 
1 1 1 1 1 1 1 1 1 
1 1 1 1 1 1 1 1 1 
1 1 1 1 1 1 1 1 1 
1 1 1 1 1 1 1 1 1 
1 1 1 1 1 1 1 1 1 
1 1 1 1 1 1 1 1 1 
1 1 1 1 1 1 1 1 1 
1 1 1 1 1 1 1 1 1 
1 1 1 1 1 1 1 1 1 
1 1 1 1 1 1 1 1 1 
1 1 1 1 1 1 1 1 1 
1 1 1 1 1 1 1 1 1 
1 1 1 1 1 1 1 1 1 
1 1 1 1 1 1 1 1 1 
1 1 1 1 1 1 1 1 1 
1 1 1 1 1 1 1 1 1 
1 1 1 1 1 1 1 1 1 
1 1 1 1 1 1 1 1 1 
1 1 1 1 1 1 1 1 1 
1 1 1 1 1 1 1 1 1 
1 1 1 1 1 1 1 1 1 
1 1 1 1 1 1 1 1 1 
1 1 1 1 1 1 1 1 1 
1 1 1 1 1 1 1 1 1 
1 1 1 1 1 1 1 1 1 
1 1 1 1 1 1 1 1 1 
1 1 1 1 1 1 1 1 1 
1 1 1 1 1 1 1 1 1 
1 1 1 1 1 1 1 1 1 
1 1 1 1 1 1 1 1 1 
1 1 1 1 1 1 1 1 1 
1 1 1 1 1 1 1 1 1 
1 1 1 1 1 1 1 1 1 
1 1 1 1 1 1 1 1 1 
1 1 1 1 1 1 1 1 1 
1 1 1 1 1 1 1 1 1 
1 1 1 1 1 1 1 1 1 
1 1 1 1 1 1 1 1 1 
1 1 1 1 1 1 1 1 1 
1 1 1 1 1 1 1 1 1 
1 1 1 1 1 1 1 1 1 
1 1 1 1 1 1 1 1 1 
1 1 1 1 1 1 1 1 1 
1 1 1 1 1 1 1 1 1 
1 1 1 1 1 1 1 1 1 
1 1 1 1 1 1 1 1 1 
1 1 1 1 1 1 1 1 1 
1 1 1 1 1 1 1 1 1 
1 1 1 1 1 1 1 1 1 
1 1 1 1 1 1 1 1 1 
1 1 1 1 1 1 1 1 1 
1 1 1 1 1 1 1 1 1 
1 1 1 1 1 1 1 1 1 
1 1 1 1 1 1 1 1 1 
1 1 1 1 1 1 1 1 1 
1 1 1 1 1 1 1 1 1 
1 1 1 1 1 1 1 1 1 
1 1 1 1 1 1 1 1 1 
1 1 1 1 1 1 1 1 1 
1 1 1 1 1 1 1 1 1 
1 1 1 1 1 1 1 1 1 
1 1 1 1 1 1 1 1 1 
1 1 1 1 1 1 1 1 1 
1 1 1 1 1 1 1 1 1 
1 1 1 1 1 1 1 1 1 
1 1 1 1 1 1 1 1 1 
1 1 1 1 1 1 1 1 1 
1 1 1 1 1 1 1 1 1 
1 1 1 1 1 1 1 1 1 
1 1 1 1 1 1 1 1 1 
1 1 1 1 1 1 1 1 1 
1 1 1 1 1 1 1 1 1 
1 1 1 1 1 1 1 1 1 
1 1 1 1 1 1 1 1 1 
1 1 1 1 1 1 1 1 1 
1 1 1 1 1 1 1 1 1 
1 1 1 1 1 1 1 1 1 
1 1 1 1 1 1 1 1 1 
1 1 1 1 1 1 1 1 1 
1 1 1 1 1 1 1 1 1 
1 1 1 1 1 1 1 1 1 
1 1 1 1 1 1 1 1 1 
1 1 1 1 1 1 1 1 1 
1 1 1 1 1 1 1 1 1 
1 1 1 1 1 1 1 1 1 
1 1 1 1 1 1 1 1 1 
1 1 1 1 1 1 1 1 1 
1 1 1 1 1 1 1 1 1 
1 1 1 1 1 1 1 1 1 
1 1 1 1 1 1 1 1 1 
1 1 1 1 1 1 1 1 1 
1 1 1 1 1 1 1 1 1 
1 1 1 1 1 1 1 1 1 
1 1 1 1 1 1 1 1 1 
1 1 1 1 1 1 1 1 1 
1 1 1 1 1 1 1 1 1 
1 1 1 1 1 1 1 1 1 
1 1 1 1 1 1 1 1 1 
1 1 1 1 1 1 1 1 1 
1 1 1 1 1 1 1 1 1 
1 1 1 1 1 1 1 1 1 
1 1 1 1 1 1 1 1 1 
1 1 1 1 1 1 1 1 1 
1 1 1 1 1 1 1 1 1 
1 1 1 1 1 1 1 1 1 
1 1 1 1 1 1 1 1 1 
1 1 1 1 1 1 1 1 1 
1 1 1 1 1 1 1 1 1 
1 1 1 1 1 1 1 1 1 
1 1 1 1 1 1 1 1 1 
1 1 1 1 1 1 1 1 1 
1 1 1 1 1 1 1 1 1 
1 1 1 1 1 1 1 1 1 
1 1 1 1 1 1 1 1 1 
1 1 1 1 1 1 1 1 1 
1 1 1 1 1 1 1 1 1 
1 1 1 1 1 1 1 1 1 
1 1 1 1 1 1 1 1 1 
1 1 1 1 1 1 1 1 1 
1 1 1 1 1 1 1 1 1 
1 1 1 1 1 1 1 1 1 
1 1 1 1 1 1 1 1 1 
1 1 1 1 1 1 1 1 1 
1 1 1 1 1 1 1 1 1 
1 1 1 1 1 1 1 1 1 
1 1 1 1 1 1 1 1 1 
1 1 1 1 1 1 1 1 1 
1 1 1 1 1 1 1 1 1 
1 1 1 1 1 1 1 1 1 
1 1 1 1 1 1 1 1 1 
1 1 1 1 1 1 1 1 1 
1 1 1 1 1 1 1 1 1 
1 1 1 1 1 1 1 1 1 
1 1 1 1 1 1 1 1 1 
1 1 1 1 1 1 1 1 1 
1 1 1 1 1 1 1 1 1 
1 1 1 1 1 1 1 1 1 
1 1 1 1 1 1 1 1 1 
1 1 1 1 1 1 1 1 1 
1 1 1 1 1 1 1 1 1 
1 1 1 1 1 1 1 1 1 
1 1 1 1 1 1 1 1 1 
1 1 1 1 1 1 1 1 1 
1 1 1 1 1 1 1 1 1 
1 1 1 1 1 1 1 1 1 
1 1 1 1 1 1 1 1 1 
1 1 1 1 1 1 1 1 1 
1 1 1 1 1 1 1 1 1 
1 1 1 1 1 1 1 1 1 
1 1 1 1 1 1 1 1 1 
1 1 1 1 1 1 1 1 1 
1 1 1 1 1 1 1 1 1 
1 1 1 1 1 1 1 1 1 
1 1 1 1 1 1 1 1 1 
1 1 1 1 1 1 1 1 1 
1 1 1 1 1 1 1 1 1 
1 1 1 1 1 1 1 1 1 
1 1 1 1 1 1 1 1 1 
1 1 1 1 1 1 1 1 1 
1 1 1 1 1 1 1 1 1 
1 1 1 1 1 1 1 1 1 
1 1 1 1 1 1 1 1 1 
1 1 1 1 1 1 1 1 1 
1 1 1 1 1 1 1 1 1 
1 1 1 1 1 1 1 1 1 
1 1 1 1 1 1 1 1 1 
1 1 1 1 1 1 1 1 1 
1 1 1 1 1 1 1 1 1 
1 1 1 1 1 1 1 1 1 
1 1 1 1 1 1 1 1 1 
1 1 1 1 1 1 1 1 1 
1 1 1 1 1 1 1 1 1 
1 1 1 1 1 1 1 1 1 
1 1 1 1 1 1 1 1 1 
1 1 1 1 1 1 1 1 1 
1 1 1 1 1 1 1 1 1 
1 1 1 1 1 1 1 1 1 
1 1 1 1 1 1 1 1 1 
1 1 1 1 1 1 1 1 1 
1 1 1 1 1 1 1 1 1 
1 1 1 1 1 1 1 1 1 
1 1 1 1 1 1 1 1 1 
1 1 1 1 1 1 1 1 1 
1 1 1 1 1 1 1 1 1 
1 1 1 1 1 1 1 1 1 
1 1 1 1 1 1 1 1 1 
1 1 1 1 1 1 1 1 1 
1 1 1 1 1 1 1 1 1 
1 1 1 1 1 1 1 1 1 
1 1 1 1 1 1 1 1 1 
1 1 1 1 1 1 1 1 1 
1 1 1 1 1 1 1 1 1 
1 1 1 1 1 1 1 1 1 
1 1 1 1 1 1 1 1 1 
1 1 1 1 1 1 1 1 1 
1 1 1 1 1 1 1 1 1 
1 1 1 1 1 1 1 1 1 
1 1 1 1 1 1 1 1 1 
1 1 1 1 1 1 1 1 1 
1 1 1 1 1 1 1 1 1 
1 1 1 1 1 1 1 1 1 
1 1 1 1 1 1 1 1 1 
1 1 1 1 1 1 1 1 1 
1 1 1 1 1 1 1 1 1 
1 1 1 1 1 1 1 1 1 
1 1 1 1 1 1 1 1 1 
1 1 1 1 1 1 1 1 1 
1 1 1 1 1 1 1 1 1 
1 1 1 1 1 1 1 1 1 
1 1 1 1 1 1 1 1 1 
1 1 1 1 1 1 1 1 1 
1 1 1 1 1 1 1 1 1 
1 1 1 1 1 1 1 1 1 
1 1 1 1 1 1 1 1 1 
1 1 1 1 1 1 1 1 1 
1 1 1 1 1 1 1 1 1 
1 1 1 1 1 1 1 1 1 
1 1 1 1 1 1 1 1 1 
1 1 1 1 1 1 1 1 1 
1 1 1 1 1 1 1 1 1 
1 1 1 1 1 1 1 1 1 
1 1 1 1 1 1 1 1 1 
1 1 1 1 1 1 1 1 1 
1 1 1 1 1 1 1 1 1 
1 1 1 1 1 1 1 1 1 
1 1 1 1 1 1 1 1 1 
1 1 1 1 1 1 1 1 1 
1 1 1 1 1 1 1 1 1 
1 1 1 1 1 1 1 1 1 
1 1 1 1 1 1 1 1 1 
1 1 1 1 1 1 1 1 1 
1 1 1 1 1 1 1 1 1 
1 1 1 1 1 1 1 1 1 
1 1 1 1 1 1 1 1 1 
1 1 1 1 1 1 1 1 1 
1 1 1 1 1 1 1 1 1 
1 1 1 1 1 1 1 1 1 
1 1 1 1 1 1 1 1 1 
1 1 1 1 1 1 1 1 1 
1 1 1 1 1 1 1 1 1 
1 1 1 1 1 1 1 1 1 
1 1 1 1 1 1 1 1 1 
1 1 1 1 1 1 1 1 1 
1 1 1 1 1 1 1 1 1 
1 1 1 1 1 1 1 1 1 
1 1 1 1 1 1 1 1 1 
1 1 1 1 1 1 1 1 1 
1 1 1 1 1 1 1 1 1 
1 1 1 1 1 1 1 1 1 
1 1 1 1 1 1 1 1 1 
1 1 1 1 1 1 1 1 1 
1 1 1 1 1 1 1 1 1 
1 1 1 1 1 1 1 1 1 
1 1 1 1 1 1 1 1 1 
1 1 1 1 1 1 1 1 1 
1 1 1 1 1 1 1 1 1 
1 1 1 1 1 1 1 1 1 
1 1 1 1 1 1 1 1 1 
1 1 1 1 1 1 1 1 1 
1 1 1 1 1 1 1 1 1 
1 1 1 1 1 1 1 1 1 
1 1 1 1 1 1 1 1 1 
1 1 1 1 1 1 1 1 1 
1 1 1 1 1 1 1 1 1 
1 1 1 1 1 1 1 1 1 
1 1 1 1 1 1 1 1 1 
1 1 1 1 1 1 1 1 1 
1 1 1 1 1 1 1 1 1 
1 1 1 1 1 1 1 1 1 
1 1 1 1 1 1 1 1 1 
1 1 1 1 1 1 1 1 1 
1 1 1 1 1 1 1 1 1 
1 1 1 1 1 1 1 1 1 
1 1 1 1 1 1 1 1 1 
1 1 1 1 1 1 1 1 1 
1 1 1 1 1 1 1 1 1 
1 1 1 1 1 1 1 1 1 
1 1 1 1 1 1 1 1 1 
1 1 1 1 1 1 1 1 1 
1 1 1 1 1 1 1 1 1 
1 1 1 1 1 1 1 1 1 
1 1 1 1 1 1 1 1 1 
1 1 1 1 1 1 1 1 1 
1 1 1 1 1 1 1 1 1 
1 1 1 1 1 1 1 1 1 
1 1 1 1 1 1 1 1 1 
1 1 1 1 1 1 1 1 1 
1 1 1 1 1 1 1 1 1 
1 1 1 1 1 1 1 1 1 
1 1 1 1 1 1 1 1 1 
1 1 1 1 1 1 1 1 1 
1 1 1 1 1 1 1 1 1 
1 1 1 1 1 1 1 1 1 
1 1 1 1 1 1 1 1 1 
1 1 1 1 1 1 1 1 1 
1 1 1 1 1 1 1 1 1 
1 1 1 1 1 1 1 1 1 
1 1 1 1 1 1 1 1 1 
1 1 1 1 1 1 1 1 1 
1 1 1 1 1 1 1 1 1 
1 1 1 1 1 1 1 1 1 
1 1 1 1 1 1 1 1 1 
1 1 1 1 1 1 1 1 1 
1 1 1 1 1 1 1 1 1 
1 1 1 1 1 1 1 1 1 
1 1 1 1 1 1 1 1 1 
1 1 1 1 1 1 1 1 1 
1 1 1 1 1 1 1 1 1 
1 1 1 1 1 1 1 1 1 
1 1 1 1 1 1 1 1 1 
1 1 1 1 1 1 1 1 1 
1 1 1 1 1 1 1 1 1 
1 1 1 1 1 1 1 1 1 
1 1 1 1 1 1 1 1 1 
1 1 1 1 1 1 1 1 1 
1 1 1 1 1 1 1 1 1 
1 1 1 1 1 1 1 1 1 
1 1 1 1 1 1 1 1 1 
1 1 1 1 1 1 1 1 1 
1 1 1 1 1 1 1 1 1 
1 1 1 1 1 1 1 1 1 
1 1 1 1 1 1 1 1 1 
1 1 1 1 1 1 1 1 1 
1 1 1 1 1 1 1 1 1 
1 1 1 1 1 1 1 1 1 
1 1 1 1 1 1 1 1 1 
1 1 1 1 1 1 1 1 1 
1 1 1 1 1 1 1 1 1 
1 1 1 1 1 1 1 1 1 
1 1 1 1 1 1 1 1 1 
1 1 1 1 1 1 1 1 1 
1 1 1 1 1 1 1 1 1 
1 1 1 1 1 1 1 1 1 
1 1 1 1 1 1 1 1 1 
1 1 1 1 1 1 1 1 1 
1 1 1 1 1 1 1 1 1 
1 1 1 1 1 1 1 1 1 
1 1 1 1 1 1 1 1 1 
1 1 1 1 1 1 1 1 1 
1 1 1 1 1 1 1 1 1 
1 1 1 1 1 1 1 1 1 
1 1 1 1 1 1 1 1 1 
1 1 1 1 1 1 1 1 1 
1 1 1 1 1 1 1 1 1 
1 1 1 1 1 1 1 1 1 
1 1 1 1 1 1 1 1 1 
1 1 1 1 1 1 1 1 1 
1 1 1 1 1 1 1 1 1 
1 1 1 1 1 1 1 1 1 
1 1 1 1 1 1 1 1 1 
1 1 1 1 1 1 1 1 1 
1 1 1 1 1 1 1 1 1 
1 1 1 1 1 1 1 1 1 
1 1 1 1 1 1 1 1 1 
1 1 1 1 1 1 1 1 1 
1 1 1 1 1 1 1 1 1 
1 1 1 1 1 1 1 1 1 
1 1 1 1 1 1 1 1 1 
1 1 1 1 1 1 1 1 1 
1 1 1 1 1 1 1 1 1 
1 1 1 1 1 1 1 1 1 
1 1 1 1 1 1 1 1 1 
1 1 1 1 1 1 1 1 1 
1 1 1 1 1 1 1 1 1 
1 1 1 1 1 1 1 1 1 
1 1 1 1 1 1 1 1 1 
1 1 1 1 1 1 1 1 1 
1 1 1 1 1 1 1 1 1 
1 1 1 1 1 1 1 1 1 
1 1 1 1 1 1 1 1 1 
1 1 1 1 1 1 1 1 1 
1 1 1 1 1 1 1 1 1 
1 1 1 1 1 1 1 1 1 
1 1 1 1 1 1 1 1 1 
1 1 1 1 1 1 1 1 1 
1 1 1 1 1 1 1 1 1 
1 1 1 1 1 1 1 1 1 
1 1 1 1 1 1 1 1 1 
1 1 1 1 1 1 1 1 1 
1 1 1 1 1 1 1 1 1 
1 1 1 1 1 1 1 1 1 
1 1 1 1 1 1 1 1 1 
1 1 1 1 1 1 1 1 1 
1 1 1 1 1 1 1 1 1 
1 1 1 1 1 1 1 1 1 
1 1 1 1 1 1 1 1 1 
1 1 1 1 1 1 1 1 1 
1 1 1 1 1 1 1 1 1 
1 1 1 1 1 1 1 1 1 
1 1 1 1 1 1 1 1 1 
1 1 1 1 1 1 1 1 1 
1 1 1 1 1 1 1 1 1 
1 1 1 1 1 1 1 1 1 
1 1 1 1 1 1 1 1 1 
1 1 1 1 1 1 1 1 1 
1 1 1 1 1 1 1 1 1 
1 1 1 1 1 1 1 1 1 
1 1 1 1 1 1 1 1 1 
1 1 1 1 1 1 1 1 1 
1 1 1 1 1 1 1 1 1 
1 1 1 1 1 1 1 1 1 
1 1 1 1 1 1 1 1 1 
1 1 1 1 1 1 1 1 1 
1 1 1 1 1 1 1 1 1 
1 1 1 1 1 1 1 1 1 
1 1 1 1 1 1 1 1 1 
1 1 1 1 1 1 1 1 1 
1 1 1 1 1 1 1 1 1 
1 1 1 1 1 1 1 1 1 
1 1 1 1 1 1 1 1 1 
1 1 1 1 1 1 1 1 1 
1 1 1 1 1 1 1 1 1 
1 1 1 1 1 1 1 1 1 
1 1 1 1 1 1 1 1 1 
1 1 1 1 1 1 1 1 1 
1 1 1 1 1 1 1 1 1 
1 1 1 1 1 1 1 1 1 
1 1 1 1 1 1 1 1 1 
1 1 1 1 1 1 1 1 1 
1 1 1 1 1 1 1 1 1 
1 1 1 1 1 1 1 1 1 
1 1 1 1 1 1 1 1 1 
1 1 1 1 1 1 1 1 1 
1 1 1 1 1 1 1 1 1 
1 1 1 1 1 1 1 1 1 
1 1 1 1 1 1 1 1 1 
1 1 1 1 1 1 1 1 1 
1 1 1 1 1 1 1 1 1 
1 1 1 1 1 1 1 1 1 
1 1 1 1 1 1 1 1 1 
1 1 1 1 1 1 1 1 1 
1 1 1 1 1 1 1 1 1 
1 1 1 1 1 1 1 1 1 
1 1 1 1 1 1 1 1 1 
1 1 1 1 1 1 1 1 1 
1 1 1 1 1 1 1 1 1 
1 1 1 1 1 1 1 1 1 
1 1 1 1 1 1 1 1 1 
1 1 1 1 1 1 1 1 1 
1 1 1 1 1 1 1 1 1 
1 1 1 1 1 1 1 1 1 
1 1 1 1 1 1 1 1 1 
1 1 1 1 1 1 1 1 1 
1 1 1 1 1 1 1 1 1 
1 1 1 1 1 1 1 1 1 
1 1 1 1 1 1 1 1 1 
1 1 1 1 1 1 1 1 1 
1 1 1 1 1 1 1 1 1 
1 1 1 1 1 1 1 1 1 
1 1 1 1 1 1 1 1 1 
1 1 1 1 1 1 1 1 1 
1 1 1 1 1 1 1 1 1 
1 1 1 1 1 1 1 1 1 
1 1 1 1 1 1 1 1 1 
1 1 1 1 1 1 1 1 1 
1 1 1 1 1 1 1 1 1 
1 1 1 1 1 1 1 1 1 
1 1 1 1 1 1 1 1 1 
1 1 1 1 1 1 1 1 1 
1 1 1 1 1 1 1 1 1 
1 1 1 1 1 1 1 1 1 
1 1 1 1 1 1 1 1 1 
1 1 1 1 1 1 1 1 1 
1 1 1 1 1 1 1 1 1 
1 1 1 1 1 1 1 1 1 
1 1 1 1 1 1 1 1 1 
1 1 1 1 1 1 1 1 1 
1 1 1 1 1 1 1 1 1 
1 1 1 1 1 1 1 1 1 
1 1 1 1 1 1 1 1 1 
1 1 1 1 1 1 1 1 1 
1 1 1 1 1 1 1 1 1 
1 1 1 1 1 1 1 1 1 
1 1 1 1 1 1 1 1 1 
1 1 1 1 1 1 1 1 1 
1 1 1 1 1 1 1 1 1 
1 1 1 1 1 1 1 1 1 
1 1 1 1 1 1 1 1 1 
1 1 1 1 1 1 1 1 1 
1 1 1 1 1 1 1 1 1 
1 1 1 1 1 1 1 1 1 
1 1 1 1 1 1 1 1 1 
1 1 1 1 1 1 1 1 1 
1 1 1 1 1 1 1 1 1 
1 1 1 1 1 1 1 1 1 
1 1 1 1 1 1 1 1 1 
1 1 1 1 1 1 1 1 1 
1 1 1 1 1 1 1 1 1 
1 1 1 1 1 1 1 1 1 
1 1 1 1 1 1 1 1 1 
1 1 1 1 1 1 1 1 1 
1 1 1 1 1 1 1 1 1 
1 1 1 1 1 1 1 1 1 
1 1 1 1 1 1 1 1 1 
1 1 1 1 1 1 1 1 1 
1 1 1 1 1 1 1 1 1 
1 1 1 1 1 1 1 1 1 
1 1 1 1 1 1 1 1 1 
1 1 1 1 1 1 1 1 1 
1 1 1 1 1 1 1 1 1 
1 1 1 1 1 1 1 1 1 
1 1 1 1 1 1 1 1 1 
1 1 1 1 1 1 1 1 1 
1 1 1 1 1 1 1 1 1 
1 1 1 1 1 1 1 1 1 
1 1 1 1 1 1 1 1 1 
1 1 1 1 1 1 1 1 1 
1 1 1 1 1 1 1 1 1 
1 1 1 1 1 1 1 1 1 
1 1 1 1 1 1 1 1 1 
1 1 1 1 1 1 1 1 1 
1 1 1 1 1 1 1 1 1 
1 1 1 1 1 1 1 1 1 
1 1 1 1 1 1 1 1 1 
1 1 1 1 1 1 1 1 1 
1 1 1 1 1 1 1 1 1 
1 1 1 1 1 1 1 1 1 
1 1 1 1 1 1 1 1 1 
1 1 1 1 1 1 1 1 1 
1 1 1 1 1 1 1 1 1 
1 1 1 1 1 1 1 1 1 
1 1 1 1 1 1 1 1 1 
1 1 1 1 1 1 1 1 1 
1 1 1 1 1 1 1 1 1 
1 1 1 1 1 1 1 1 1 
1 1 1 1 1 1 1 1 1 
1 1 1 1 1 1 1 1 1 
1 1 1 1 1 1 1 1 1 
1 1 1 1 1 1 1 1 1 
1 1 1 1 1 1 1 1 1 
1 1 1 1 1 1 1 1 1 
1 1 1 1 1 1 1 1 1 
1 1 1 1 1 1 1 1 1 
1 1 1 1 1 1 1 1 1 
1 1 1 1 1 1 1 1 1 
1 1 1 1 1 1 1 1 1 
1 1 1 1 1 1 1 1 1 
1 1 1 1 1 1 1 1 1 
1 1 1 1 1 1 1 1 1 
1 1 1 1 1 1 1 1 1 
1 1 1 1 1 1 1 1 1 
1 1 1 1 1 1 1 1 1 
1 1 1 1 1 1 1 1 1 
1 1 1 1 1 1 1 1 1 
1 1 1 1 1 1 1 1 1 
1 1 1 1 1 1 1 1 1 
1 1 1 1 1 1 1 1 1 
1 1 1 1 1 1 1 1 1 
1 1 1 1 1 1 1 1 1 
1 1 1 1 1 1 1 1 1 
1 1 1 1 1 1 1 1 1 
1 1 1 1 1 1 1 1 1 
1 1 1 1 1 1 1 1 1 
1 1 1 1 1 1 1 1 1 
1 1 1 1 1 1 1 1 1 
1 1 1 1 1 1 1 1 1 
1 1 1 1 1 1 1 1 1 
1 1 1 1 1 1 1 1 1 
1 1 1 1 1 1 1 1 1 
1 1 1 1 1 1 1 1 1 
1 1 1 1 1 1 1 1 1 
1 1 1 1 1 1 1 1 1 
1 1 1 1 1 1 1 1 1 
1 1 1 1 1 1 1 1 1 
1 1 1 1 1 1 1 1 1 
1 1 1 1 1 1 1 1 1 
1 1 1 1 1 1 1 1 1 
1 1 1 1 1 1 1 1 1 
1 1 1 1 1 1 1 1 1 
1 1 1 1 1 1 1 1 1 
1 1 1 1 1 1 1 1 1 
1 1 1 1 1 1 1 1 1 
1 1 1 1 1 1 1 1 1 
1 1 1 1 1 1 1 1 1 
1 1 1 1 1 1 1 1 1 
1 1 1 1 1 1 1 
NORMALS normals float
-0.216936 0.470832 0.855135 -0.267496 0.588003 0.763347 -0.323183 0.511546 0.796162 
0.554532 -0.0484858 0.830748 0.555008 -0.0452 0.830616 0.555134 -0.0481164 0.830368 
0.125657 -0.148193 0.980943 -0.208232 -0.00362319 0.978073 0.265688 -0.195244 0.944081 
0.554562 -0.0491304 0.830691 0.178535 -0.298289 0.937629 -0.144281 0.0167311 0.989395 
-0.043432 0.530657 0.846473 -0.520061 -0.132855 0.843734 0.718628 0.0473457 0.693781 
0.707209 0.333036 0.623652 0.838357 0.00516308 0.545097 -0.207837 -0.687423 0.695884 
-0.208601 -0.687446 0.695632 -0.20445 -0.688778 0.695547 0.722644 -0.392523 0.568956 
-0.207826 -0.687894 0.695421 -0.326346 0.231202 0.916539 -0.272429 0.55534 0.785735 
-0.412279 0.169471 0.895157 0.117562 0.233487 0.965227 0.178026 0.774984 0.606389 
0.726764 0.282412 0.626145 0.729691 0.310455 0.609236 0.735633 0.282167 0.615814 
-0.36657 -0.316262 0.874988 -0.446336 -0.349164 0.823935 0.113209 -0.35268 0.928871 
0.677631 -0.314456 0.664781 0.758615 0.0689628 0.647879 -0.359293 -0.409154 0.83875 
0.126544 -0.550002 0.825521 -0.543763 0.611838 0.574435 -0.405363 0.842141 0.35564 
-0.541308 0.663337 0.516691 -0.104737 0.994293 0.0202853 0.345776 0.91885 -0.19014 
0.813435 0.533811 0.231018 -0.504506 0.446594 0.738936 -0.557012 0.535964 0.634414 
-0.493775 0.508981 0.705071 -0.41538 0.11396 0.902481 0.545582 -0.196348 0.814732 
0.660113 0.162252 0.733434 -0.530248 0.302562 0.792018 -0.516929 0.419855 0.745994 
-0.526613 0.286728 0.800291 -0.323955 0.18589 0.927631 -0.0427557 -0.207249 0.977354 
0.238638 -0.464008 0.853082 0.348786 -0.261504 0.89998 0.566062 0.169066 0.80684 
0.446062 0.149016 0.882509 0.464573 0.175211 0.868028 -0.512554 0.0946578 0.853421 
-0.535947 0.116653 0.836154 -0.118024 -0.0106517 0.992954 0.284556 -0.191236 0.939392 
0.239859 -0.270562 0.932343 -0.00668481 -0.135187 0.990798 0.184592 0.118345 0.975664 
0.319205 0.211369 0.923813 -0.447403 0.0964275 0.889119 -0.518524 0.14285 0.843046 
-0.0390768 -0.0595408 0.997461 0.310156 -0.0951686 0.94591 0.201327 -0.0616055 0.977585 
-0.056879 -0.00451407 0.998371 0.0701369 -0 0.997537 0.335704 0.10044 0.936597 
0.307558 0.0589312 0.949703 0.302117 0.0708667 0.950633 -0.598036 -0.0813174 0.797333 
-0.594957 -0.0641411 0.801194 -0.599695 -0.0843385 0.795772 -0.307429 0.0414941 0.950666 
0.0642197 -0.00401415 0.997928 0.421028 -0.0604704 0.90503 0.203604 -0.424238 0.882365 
-0.0869432 -0.103373 0.990835 0.116403 -0.159057 0.980383 0.257562 -0.253981 0.932285 
0.316941 -0.0526507 0.946983 -0.603261 -0.0973079 0.791586 -0.604003 -0.42531 0.674011 
-0.482816 -0.279883 0.829792 -0.105372 0.161631 0.98121 0.432777 0.681848 0.589734 
0.92674 0.0154265 -0.375385 0.263128 -0.613989 0.744165 -0.172521 -0.496184 0.850904 
0.242123 -0.454057 0.857443 -0.642337 -0.447406 0.622279 -0.657361 -0.455478 0.600347 
-0.557065 -0.176978 0.811392 0.777453 0.0242312 -0.628474 0.993938 0.0413782 -0.101863 
-0.500266 -0.703754 0.504445 -0.510574 -0.702433 0.495886 0.657216 -0.709414 -0.254555 
-0.464452 -0.756672 0.460144 0.168789 -0.984734 0.0425287 -0.336323 0.710164 0.61851 
-0.324202 0.731776 0.599497 -0.326494 0.721367 0.610762 -0.169323 0.77244 0.6121 
-0.0325192 0.89255 0.449774 0.250338 0.868258 0.428322 0.378041 0.912362 0.157101 
0.481192 0.865582 0.138646 -0.580301 0.00678908 0.814374 -0.550609 0.259113 0.79353 
-0.690847 -0.139962 0.709324 -0.433645 0.163421 0.886141 0.688807 0.691187 0.218647 
0.821419 0.334476 0.461948 -0.621708 -0.112883 0.775072 -0.60988 -0.271567 0.744512 
-0.561669 -0.319386 0.76323 0.730876 -0.290749 0.617483 0.80031 -0.247252 0.546233 
-0.505149 -0.378405 0.775651 -0.497641 -0.33061 0.801904 -0.327535 -0.485003 0.81086 
0.134332 -0.561939 0.816199 0.725915 -0.36754 0.581345 0.746024 -0.346582 0.56862 
-0.462393 -0.41984 0.780978 -0.277251 -0.604739 0.746608 -0.233524 -0.633238 0.737886 
0.199432 -0.633882 0.747275 0.35878 -0.571127 0.738302 0.713677 -0.363045 0.599052 
-0.0175664 -0.0285067 0.999439 -0.0180194 -0.00121771 0.999837 -0.0721273 -0.0218118 0.997157 
0.0213655 -0.00142629 0.999771 -0.222679 -0.660868 0.716706 0.183351 -0.653683 0.734221 
-0.0283182 -0.0344818 0.999004 0.0271057 0.342246 0.939219 0.0367362 0.24379 0.969132 
-0.112458 0.356226 0.927608 0.296612 0.177222 0.93841 -0.386697 0.386697 0.837216 
-0.383769 0.394881 0.83474 -0.403434 0.380702 0.83205 -0.190991 0.403409 0.894865 
-0.188529 0.402269 0.8959 -0.103363 0.35527 0.929032 -0.19373 0.377053 0.905704 
0.429571 0.130014 0.893625 0.799609 -0.130289 0.586217 -0.420877 -0.0119806 0.907039 
-0.505175 -0.0246599 0.862664 -0.171812 -0.0292688 0.984695 0.0295269 -0.064802 0.997461 
0.709275 -0.275592 0.648828 0.843134 -0.353516 0.405156 -0.340974 -0.476754 0.810211 
-0.353153 -0.474562 0.806272 -0.0279907 -0.63745 0.769983 0.217258 -0.856757 0.467725 
0.227797 -0.859363 0.457824 0.747166 -0.592474 0.301194 -0.334094 -0.491103 0.804487 
0.0270041 -0.695172 0.718336 0.219814 -0.858682 0.462977 -0.377985 0.175016 0.909119 
-0.388006 0.431369 0.814477 -0.551829 0.174391 0.81552 0.58394 0.0460949 0.810487 
0.529915 0.285726 0.798468 0.648828 0.0471269 0.759475 -0.293186 -0.620264 0.72754 
0.607185 -0.269743 0.747372 0.0330158 0.173504 0.98428 0.0301379 0.29277 0.955708 