# vtk DataFile Version 4.0
vtk output
ASCII
DATASET POLYDATA
POINTS 1440 float
-10 -50 -64.0774 -10 -50.13 -64 -9.92261 -50 -64 
-12 -50 -64.3984 -12 -50.7776 -64 -12.4765 -50 -64 
-10 -48 -64.0774 -9.92261 -48 -64 -12 -48 -64.5957 
-12.9834 -48 -64 -10 -47.8372 -64 -12 -46.1128 -64 
-10 -51.2892 -62 -9.20215 -50 -62 -12 -51.8289 -62 
-13.2301 -50 -62 -8.91722 -48 -62 -14 -48.0346 -62 
-14 -48 -62.0321 -14.0257 -48 -62 -10 -46 -63.0247 
-9.2464 -46 -62 -12 -46 -63.9559 -14 -46 -63.184 
-16 -46.3984 -62 -16 -46 -62.2214 -16.3293 -46 -62 
-10 -44.4311 -62 -10.5425 -44 -62 -12 -44 -62.6528 
-14 -44 -62.5967 -15.9654 -44 -62 -16 -44.0994 -62 
-12 -43.4033 -62 -14 -43.3472 -62 -14 -52 -60.4064 
-14 -52.3868 -60 -13.5367 -52 -60 -16 -52 -60.734 
-16 -52.734 -60 -18 -52 -60.0519 -18 -52.0346 -60 
-18.0346 -52 -60 -10 -50 -60.2209 -11.4714 -50 -60 
-12 -50.0894 -60 -14 -50 -60.9031 -16 -50 -61.0287 
-18 -50 -60.734 -18.734 -50 -60 -10 -49.8256 -60 
-8.74505 -48 -60 -16 -48 -61.1522 -18 -48 -60.6627 
-18.8066 -48 -60 -8.82816 -46 -60 -18 -46 -60.5882 
-18.4717 -46 -60 -10 -44 -61.2685 -9.60162 -44 -60 
-16 -44 -61.9817 -17.6733 -44 -60 -18 -44.6866 -60 
-10 -43.6016 -60 -12 -42.8049 -60 -14 -42.5339 -60 
-16 -42.9455 -60 18 -52 -58.0361 18 -52.1025 -58 
18.0346 -52 -58 17.6689 -52 -58 -14 -52.734 -58 
-13.2385 -52 -58 -16 -53 -58 -18 -52.0774 -58 
-18.0774 -52 -58 18 -51.4601 -58 -12 -50 -59.8975 
-12.7083 -50 -58 -19 -50 -58 -10 -48 -58.4501 
-11.7887 -48 -58 -12 -48.1024 -58 -18.9688 -48 -58 
-10 -46.9859 -58 -9.64151 -46 -58 -18.3204 -46 -58 
-10 -44.9698 -58 -10 -44 -58.8566 -10.7797 -44 -58 
-16.895 -44 -58 -18 -45.2307 -58 -12 -43.4717 -58 
-14 -43.3744 -58 -16 -43.5801 -58 18 -52 -57.8653 
-14 -52.0346 -56 -13.9481 -52 -56 -16 -52.0774 -56 
-18 -52 -57.87 -16.13 -52 -56 -13.2385 -50 -56 
-18 -50.13 -56 -18.0774 -50 -56 -12 -48 -57.9394 
-13.5909 -48 -56 -18.111 -48 -56 -10 -46 -57.681 
-12 -46 -57.1161 -14 -47.4084 -56 -14 -46 -56.7595 
-16 -46.6477 -56 -16 -46 -56.4898 -18 -47.7645 -56 
-18 -46 -57.4237 -12 -44 -57.5484 -14 -44 -57.4898 
-16 -44 -57.5952 -14 -52 -55.9654 -16 -52 -55.9226 
-14 -50 -55.266 -16 -50 -55 -18 -50 -55.9226 
-14 -48 -55.5539 -16 -48 -55.1355 -18 -48 -55.889 
48 -2 -42.5868 48 -2.52217 -42 48.776 -2 -42 
46 -2 -42.1156 46 -2.12912 -42 45.7784 -2 -42 
48 -1.47783 -42 46 -1.82678 -42 48 -2.5341 -40 
48.7431 -2 -40 46 -2.51891 -40 45.3279 -2 -40 
48 -1.5238 -40 46 -1.547 -40 48 -2 -39.0538 
46 -2 -39.2401 54 -64 -32.038 54 -64.0598 -32 
54.0482 -64 -32 53.9102 -64 -32 54 -62 -32.1049 
54.4697 -62 -32 53.8951 -62 -32 54 -61.87 -32 
54 -64.4462 -30 54.3044 -64 -30 53.1541 -64 -30 
54.8111 -62 -30 52.8176 -62 -30 54 -60.7953 -30 
54 -64 -29.4736 54 -62.4106 -28 54.2097 -62 -28 
53.3072 -62 -28 54 -61.0267 -28 54 -62 -27.7091 
30 -94 -16.949 30 -95.1593 -16 30.7646 -94 -16 
29.1283 -94 -16 30 -92.6593 -16 30 -95.7382 -14 
30.4324 -94 -14 28 -94 -14.2794 28 -94.495 -14 
27.8456 -94 -14 30 -93.3294 -14 28 -93.729 -14 
30 -94 -13.7091 28 -94 -13.8733 -26 24 -0.387235 
-26 23.8183 0 -25.7938 24 0 -28 24 -1.37452 
-28 22.976 0 -30 24 -1.90008 -30 22.017 0 
-32 24 -0.911698 -32 23.2761 0 -32.5945 24 0 
-26 26 -1.67843 -25.2523 26 0 -28 26 -1.17002 
-30 26 -0.184808 -30.2947 26 0 -32 24.8396 0 
-26 28 -0.419969 -25.8323 28 0 -26.4941 28 0 
-28 27.145 0 -30 26.1405 0 -26 28.5127 0 
-30 22 0.316565 -30 21.9285 2 -29.8051 22 2 
-30.1202 22 2 -26 23.3382 2 -25.3134 24 2 
-28 22.5212 2 -32 23.1376 2 -32.6763 24 2 
-24.8836 26 2 -32 26 1.64521 -32.16 26 2 
-25.7343 28 2 -28 28 1.44451 -28.3442 28 2 
-30 27.2054 2 -32 26.1863 2 -26 29.4332 2 
-28 30 1.26515 -26.5303 30 2 -28.4463 30 2 
-28 30.4019 2 30 -10 2.67774 30 -11.0534 4 
31.039 -10 4 28 -10 3.36908 28 -10.8335 4 
27.6016 -10 4 30 -8 3.57038 30.5055 -8 4 
28 -8 3.71923 27.7316 -8 4 30 -7.27048 4 
28 -7.09177 4 -30 22 3.68344 -26 23.1934 4 
-25.3373 24 4 -28 22.5261 4 -30 22.0121 4 
-32 23.0395 4 -32.7925 24 4 -24.9455 26 4 
-32.6632 26 4 -25.2939 28 4 -30 28 3.13402 
-30.9481 28 4 -32 27.0631 4 -26 30 3.0606 
-25.9254 30 4 -30 30 3.30197 -30.5723 30 4 
-26 30.1049 4 -28 31.8348 4 -30 30.923 4 
30 -10.0843 6 30.1142 -10 6 28 -10 5.45737 
29.3556 -10 6 30.4987 -8 6 28 -9.0952 6 
27.7984 -8 6 30 -7.48109 6 28 -7.51286 6 
-26 24 5.42949 -26.7742 24 6 -28 23.5031 6 
-30 22.6747 6 -32 23.4127 6 -32.5945 24 6 
-26 24.5233 6 -25.333 26 6 -32.5801 26 6 
-25.7066 28 6 -31.7193 28 6 -32 27.5462 6 
-26 28.5333 6 -26 30 4.16279 -27.1163 30 6 
-30.9065 30 6 -28 31.2477 6 -30 31.095 6 
30 -10 6.07739 30 -8 6.33044 28 -8 6.19411 
-28 24 6.70125 -30 24 7.52753 -32 24 6.58729 
-26 26 7.20795 -27.105 26 8 -28 25.3235 8 
-30 25.4174 8 -32 26 6.68417 -30.2332 26 8 
-26 28 6.38725 -28 26.779 8 -28 28 7.36561 
-30 26.3072 8 -30 28 7.1248 -28 30 6.58248 
-30 30 6.58823 -28 26 8.51774 -30 26 8.16375 
-38 38 9.81345 -38 37.889 10 -37.889 38 10 
-40 38 9.49447 -40 37.639 10 -40.6754 38 10 
-38 40 9.99695 -37.998 40 10 -40 40 9.10988 
-41.4295 40 10 -38 40.002 10 -40 40.6152 10 
-38 37.7316 12 -37.7412 38 12 -40 37.1161 12 
-42 38 11.0199 -42 37.3739 12 -43.2956 38 12 
-37.9226 40 12 -42 40 10.4891 -43.2508 40 12 
-38 40.0774 12 -40 40.8839 12 -42 40.7078 12 
-38 38 12.6162 -39.1665 38 14 -40 37.6016 14 
-42 37.6696 14 -42.6721 38 14 -38 40 12.1508 
-39.3691 40 14 -42.3572 40 14 -40 40.3984 14 
-42 40.2318 14 32 50 13.1214 32 49.1767 14 
32.8349 50 14 30 50 13.6993 30 49.1226 14 
29.8059 50 14 32 52 13.9975 32.0032 52 14 
31.9936 52 14 30 50.4872 14 32 52.002 14 
-40 38 14.4577 -42 38 14.3451 -40 40 14.5556 
-42 40 14.2683 32 50 15.7572 30 50 14.5476 
32 52 14.0154 -16 -6 17.6684 -16 -6.23895 18 
-15.6959 -6 18 -16.275 -6 18 -16 -5.71182 18 
-14 -6 19.9068 -14 -6.06459 20 -13.9381 -6 20 
-16 -6.71689 20 -17.3407 -6 20 -14 -5.8714 20 
-16 -4 19.931 -15.8983 -4 20 -16.0885 -4 20 
-16 -3.91495 20 -14 -8 21.2561 -14 -8.87065 22 
-12.7747 -8 22 -15.0685 -8 22 -12 -6 21.4831 
-12 -6.98639 22 -11.6586 -6 22 -16 -7.34435 22 
-18 -6 21.7729 -18 -6.03767 22 -18.0333 -6 22 
-12 -4.82133 22 -14 -4 21.6933 -13.4853 -4 22 
-18 -4 21.4762 -18.1854 -4 22 -14 -3.87868 22 
-16 -2.41724 22 -18 -3.58408 22 -14 -10 23.2862 
-14 -10.5512 24 -13.4324 -10 24 -15.8184 -10 24 
-12 -8 23.2846 -12 -8.32465 24 -11.8014 -8 24 
-16 -8 22.8544 -16 -9.88409 24 -17.0073 -8 24 
-11.1066 -6 24 -18 -6.63834 24 -18.3378 -6 24 
-12 -4 22.6001 -11.394 -4 24 -18.0424 -4 24 
-12 -3.07785 24 -14 -2.47594 24 -16 -2 22.9329 
-15.0764 -2 24 -16.5427 -2 24 -18 -3.89072 24 
-16 -1.5244 24 -14 -11.0678 26 -12.2682 -10 26 
-16 -10 24.0753 -16 -11.6786 26 -18 -10 25.66 
-18 -10.4185 26 -18.4718 -10 26 -12 -9.69864 26 
-11.1808 -8 26 -18 -8 25.1824 -18.6219 -8 26 
-10.6597 -6 26 -18.5302 -6 26 -10.9813 -4 26 
-18 -4 24.3126 -17.7611 -4 26 -18 -4.68594 26 
-12 -2.23856 26 -14 -2 24.5142 -12.3014 -2 26 
-16.8545 -2 26 -14 -1.15222 26 -16 -0.957184 26 
-52 24 25.5383 -52 23.2196 26 -50.829 24 26 
-54 24 25.4503 -54 22.905 26 -55.0164 24 26 
-50 26 25.6586 -50 24.971 26 -49.6057 26 26 
-52 26 25.0908 -54 26 25.4729 -54.656 26 26 
-50 27.1786 26 -50.7315 28 26 -52 28 25.6016 
-53.1434 28 26 -54 27.2952 26 -52 28.4126 26 
-14 -10.7867 28 -12.1908 -10 28 -16 -10.9571 28 
-18 -10.4978 28 -18.7623 -10 28 -12 -9.83827 28 
-11.1534 -8 28 -18 -8 27.871 -17.927 -8 28 
-18 -8.14178 28 -10.9509 -6 28 -18 -6 27.1585 
-17.6127 -6 28 -11.4531 -4 28 -17.6091 -4 28 
-12 -3.15942 28 -13.0741 -2 28 -16.4296 -2 28 
-14 -1.35815 28 -16 -1.58684 28 -52 23.0713 28 
-51.2011 24 28 -54 22.2878 28 -55.4031 24 28 
-50 25.1137 28 -49.1382 26 28 -54.8341 26 28 
-50 28 27.5303 -49.9002 28 28 -53.6608 28 28 
-54 27.6715 28 -50 28.1049 28 -52 28.7164 28 
-14 -10 29.6715 -16 -10 29.9026 -18 -10 28.8289 
-12 -8 29.8383 -12.208 -8 30 -14 -9.64441 30 
-16 -9.5598 30 -16.3215 -8 30 -12 -6.04378 30 
-11.998 -6 30 -16.3848 -6 30 -12 -5.99553 30 
-12 -4 28.8406 -13.1263 -4 30 -16.2953 -4 30 
-14 -2.94925 30 -14 -2 29.1032 -16 -3.62173 30 
-16 -2 28.5632 -52 24 28.7082 -54 24 29.2641 
52 26 29.2039 52 25.4941 30 52.1803 26 30 
51.4487 26 30 -50 26 28.71 -52 26 29.3525 
-54 26 28.9095 52 27.1145 30 -50 28 28.1181 
-52 28 29.1314 -30 -76 31.7615 -30 -76.2534 32 
-29.4197 -76 32 -30.167 -76 32 -30 -75.4927 32 
0 -26 31.3408 0 -27.6044 32 1.0436 -26 32 
-2 -26 31.3519 -2 -27.8476 32 -2.79947 -26 32 
0 -24 31.998 0.0030541 -24 32 -2 -24 31.9639 
-2.05192 -24 32 0 -23.998 32 -2 -23.9654 32 
-14 -8 30.6632 -16 -8 30.1665 -12 -6 30.002 
-14 -6 30.812 -16 -6 30.2684 -14 -4 30.5563 
-16 -4 30.2237 52 26 30.5513 -24 -76 33.8527 
-24 -76.9684 34 -23.8249 -76 34 -26 -76 33.5285 
-26 -77.5775 34 -28 -76 32.5972 -28 -77.3018 34 
-30 -76.9801 34 -30.7615 -76 34 -24 -75.0316 34 
-24.5158 -74 34 -26 -74 33.5644 -28 -74 33.0556 
-30 -74 32.7453 -30.715 -74 34 -26 -72.1656 34 
-26.0971 -72 34 -28 -72 33.2939 -30 -72 33.4837 
-30.505 -72 34 -28 -70 33.8344 -27.7566 -70 34 
-30 -70 33.6586 -30.4905 -70 34 -28 -69.8072 34 
-30 -69.3644 34 0 -27.2845 34 0.808172 -26 34 
-2 -27.0838 34 -2.45726 -26 34 0.186551 -24 34 
-2 -24 32.3311 -0.796452 -24 34 -2 -24.5555 34 
0 -23.889 34 -24 -78 34.2713 -24 -78.868 36 
-22.6025 -78 36 -26 -78 34.1868 -26 -79.0491 36 
-28 -78 34.6759 -28 -78.7536 36 -30 -78 35.8232 
-30 -78.0746 36 -30.0944 -78 36 -22.306 -76 36 
-31.3403 -76 36 -24 -74 34.2553 -22.8535 -74 36 
-31.1425 -74 36 -24 -72.4539 36 -26 -72 34.0746 
-24.4607 -72 36 -31.1718 -72 36 -26 -70.1947 36 
-26.1803 -70 36 -31.1728 -70 36 -28 -68.9672 36 
-30 -68.9782 36 0 -26 34.4879 -2 -26 34.3752 
0 -24 34.111 -24 -78.602 38 -22.7048 -78 38 
-26 -79.0326 38 -28 -78.7519 38 -30 -78 36.6091 
-29.6532 -78 38 -22 -76 37.0224 -22 -76.9622 38 
-21.6233 -76 38 -30 -77.6254 38 -30.7084 -76 38 
-22 -74 37.6885 -21.5758 -74 38 -30.5881 -74 38 
-22 -73.7668 38 -24 -72.4928 38 -24.418 -72 38 
-30.6418 -72 38 -26 -70 36.5056 -25.6549 -70 38 
-30.0902 -70 38 -26 -69.4441 38 -28 -68.8978 38 
-30 -69.912 38 -30 -54 37.6016 -30 -54.3984 38 
-28.7315 -54 38 -31.2685 -54 38 -28 -52 37.9226 
[...]
POINT_DATA 1440
SCALARS scalars unsigned_short
LOOKUP_TABLE default
1 1 1 1 1 1 1 1 1 
1 1 1 1 1 1 1 1 1 
1 1 1 1 1 1 1 1 1 
1 1 1 1 1 1 1 1 1 
1 1 1 1 1 1 1 1 1 
1 1 1 1 1 1 1 1 1 
1 1 1 1 1 1 1 1 1 
1 1 1 1 1 1 1 1 1 
1 1 1 1 1 1 1 1 1 
1 1 1 1 1 1 1 1 1 
1 1 1 1 1 1 1 1 1 
1 1 1 1 1 1 1 1 1 
1 1 1 1 1 1 1 1 1 
1 1 1 1 1 1 1 1 1 
1 1 1 1 1 1 1 1 1 
1 1 1 1 1 1 1 1 1 
1 1 1 1 1 1 1 1 1 
1 1 1 1 1 1 1 1 1 
1 1 1 1 1 1 1 1 1 
1 1 1 1 1 1 1 1 1 
1 1 1 1 1 1 1 1 1 
1 1 1 1 1 1 1 1 1 
1 1 1 1 1 1 1 1 1 
1 1 1 1 1 1 1 1 1 
1 1 1 1 1 1 1 1 1 
1 1 1 1 1 1 1 1 1 
1 1 1 1 1 1 1 1 1 
1 1 1 1 1 1 1 1 1 
1 1 1 1 1 1 1 1 1 
1 1 1 1 1 1 1 1 1 
1 1 1 1 1 1 1 1 1 
1 1 1 1 1 1 1 1 1 
1 1 1 1 1 1 1 1 1 
1 1 1 1 1 1 1 1 1 
1 1 1 1 1 1 1 1 1 
1 1 1 1 1 1 1 1 1 
1 1 1 1 1 1 1 1 1 
1 1 1 1 1 1 1 1 1 
1 1 1 1 1 1 1 1 1 
1 1 1 1 1 1 1 1 1 
1 1 1 1 1 1 1 1 1 
1 1 1 1 1 1 1 1 1 
1 1 1 1 1 1 1 1 1 
1 1 1 1 1 1 1 1 1 
1 1 1 1 1 1 1 1 1 
1 1 1 1 1 1 1 1 1 
1 1 1 1 1 1 1 1 1 
1 1 1 1 1 1 1 1 1 
1 1 1 1 1 1 1 1 1 
1 1 1 1 1 1 1 1 1 
1 1 1 1 1 1 1 1 1 
1 1 1 1 1 1 1 1 1 
1 1 1 1 1 1 1 1 1 
1 1 1 1 1 1 1 1 1 
1 1 1 1 1 1 1 1 1 
1 1 1 1 1 1 1 1 1 
1 1 1 1 1 1 1 1 1 
1 1 1 1 1 1 1 1 1 
1 1 1 1 1 1 1 1 1 
1 1 1 1 1 1 1 1 1 
1 1 1 1 1 1 1 1 1 
1 1 1 1 1 1 1 1 1 
1 1 1 1 1 1 1 1 1 
1 1 1 1 1 1 1 1 1 
1 1 1 1 1 1 1 1 1 
1 1 1 1 1 1 1 1 1 
1 1 1 1 1 1 1 1 1 
1 1 1 1 1 1 1 1 1 
1 1 1 1 1 1 1 1 1 
1 1 1 1 1 1 1 1 1 
1 1 1 1 1 1 1 1 1 
1 1 1 1 1 1 1 1 1 
1 1 1 1 1 1 1 1 1 
1 1 1 1 1 1 1 1 1 
1 1 1 1 1 1 1 1 1 
1 1 1 1 1 1 1 1 1 
1 1 1 1 1 1 1 1 1 
1 1 1 1 1 1 1 1 1 
1 1 1 1 1 1 1 1 1 
1 1 1 1 1 1 1 1 1 
1 1 1 1 1 1 1 1 1 
1 1 1 1 1 1 1 1 1 
1 1 1 1 1 1 1 1 1 
1 1 1 1 1 1 1 1 1 
1 1 1 1 1 1 1 1 1 
1 1 1 1 1 1 1 1 1 
1 1 1 1 1 1 1 1 1 
1 1 1 1 1 1 1 1 1 
1 1 1 1 1 1 1 1 1 
1 1 1 1 1 1 1 1 1 
1 1 1 1 1 1 1 1 1 
1 1 1 1 1 1 1 1 1 
1 1 1 1 1 1 1 1 1 
1 1 1 1 1 1 1 1 1 
1 1 1 1 1 1 1 1 1 
1 1 1 1 1 1 1 1 1 
1 1 1 1 1 1 1 1 1 
1 1 1 1 1 1 1 1 1 
1 1 1 1 1 1 1 1 1 
1 1 1 1 1 1 1 1 1 
1 1 1 1 1 1 1 1 1 
1 1 1 1 1 1 1 1 1 
1 1 1 1 1 1 1 1 1 
1 1 1 1 1 1 1 1 1 
1 1 1 1 1 1 1 1 1 
1 1 1 1 1 1 1 1 1 
1 1 1 1 1 1 1 1 1 
1 1 1 1 1 1 1 1 1 
1 1 1 1 1 1 1 1 1 
1 1 1 1 1 1 1 1 1 
1 1 1 1 1 1 1 1 1 
1 1 1 1 1 1 1 1 1 
1 1 1 1 1 1 1 1 1 
1 1 1 1 1 1 1 1 1 
1 1 1 1 1 1 1 1 1 
1 1 1 1 1 1 1 1 1 
1 1 1 1 1 1 1 1 1 
1 1 1 1 1 1 1 1 1 
1 1 1 1 1 1 1 1 1 
1 1 1 1 1 1 1 1 1 
1 1 1 1 1 1 1 1 1 
1 1 1 1 1 1 1 1 1 
1 1 1 1 1 1 1 1 1 
1 1 1 1 1 1 1 1 1 
1 1 1 1 1 1 1 1 1 
1 1 1 1 1 1 1 1 1 
1 1 1 1 1 1 1 1 1 
1 1 1 1 1 1 1 1 1 
1 1 1 1 1 1 1 1 1 
1 1 1 1 1 1 1 1 1 
1 1 1 1 1 1 1 1 1 
1 1 1 1 1 1 1 1 1 
1 1 1 1 1 1 1 1 1 
1 1 1 1 1 1 1 1 1 
1 1 1 1 1 1 1 1 1 
1 1 1 1 1 1 1 1 1 
1 1 1 1 1 1 1 1 1 
1 1 1 1 1 1 1 1 1 
1 1 1 1 1 1 1 1 1 
1 1 1 1 1 1 1 1 1 
1 1 1 1 1 1 1 1 1 
1 1 1 1 1 1 1 1 1 
1 1 1 1 1 1 1 1 1 
1 1 1 1 1 1 1 1 1 
1 1 1 1 1 1 1 1 1 
1 1 1 1 1 1 1 1 1 
1 1 1 1 1 1 1 1 1 
1 1 1 1 1 1 1 1 1 
1 1 1 1 1 1 1 1 1 
1 1 1 1 1 1 1 1 1 
1 1 1 1 1 1 1 1 1 
1 1 1 1 1 1 1 1 1 
1 1 1 1 1 1 1 1 1 
1 1 1 1 1 1 1 1 1 
1 1 1 1 1 1 1 1 1 
1 1 1 1 1 1 1 1 1 
1 1 1 1 1 1 1 1 1 
1 1 1 1 1 1 1 1 1 
1 1 1 1 1 1 1 1 1 
1 1 1 1 1 1 1 1 1 

NORMALS normals float
-0.596075 0.301317 0.744246 -0.601051 0.330194 0.727811 -0.617061 0.301393 0.726909 
0.369097 0.358071 0.857643 0.367905 0.550424 0.749453 0.53498 0.399102 0.744657 
-0.601542 -0.218579 0.768355 -0.619181 -0.217751 0.754454 0.177866 -0.125327 0.976041 
0.55443 0.0156051 0.832084 -0.60215 -0.238413 0.761955 -0.00578883 -0.456051 0.889935 
-0.625837 0.77107 -0.117389 -0.891041 0.453605 0.0169743 0.220107 0.9722 -0.0798754 
0.771728 0.501997 0.39043 -0.946486 -0.0170899 0.322291 0.735731 0.516443 0.438163 
0.737397 0.514008 0.438225 0.731838 0.518346 0.442414 -0.641219 -0.404483 0.652098 
-0.827353 -0.315656 0.464595 -0.0177731 -0.467939 0.883582 0.468621 -0.0644729 0.881044 
0.491691 0.235416 0.838343 0.518056 0.189626 0.834062 0.538693 0.171885 0.824782 
-0.629032 -0.585823 0.511008 -0.488118 -0.679705 0.547486 -0.158268 -0.701499 0.694875 
0.160132 -0.552201 0.818188 0.483402 -0.453932 0.748511 0.495134 -0.422507 0.759165 
-0.191476 -0.792181 0.579471 0.128326 -0.691177 0.711201 -0.396915 0.587599 0.705114 
-0.509828 0.656354 0.556125 -0.635532 0.646913 0.421429 0.0576155 0.563415 0.824163 
0.114679 0.823698 0.555311 0.664205 0.664205 0.343021 0.664247 0.67171 0.327996 
0.67171 0.664247 0.327996 -0.412574 0.695742 -0.587984 -0.279672 0.7164 -0.639182 
-0.253528 0.728733 -0.636139 0.156929 0.353432 0.922204 0.0588413 0.112816 0.991872 
0.561653 0.0976886 0.821586 0.812635 0.198698 0.547853 -0.385743 0.681333 -0.622083 
-0.923348 0.267147 -0.275791 0.244391 0.305496 0.920296 0.556829 -0.039289 0.829698 
0.808596 -0.0821615 0.5826 -0.969503 -0.234678 -0.0706402 0.839291 -0.183095 0.511925 
0.902585 -0.262415 0.34129 -0.656555 -0.684533 0.316781 -0.753567 -0.65723 -0.0136612 
0.489971 -0.454816 0.743687 0.764895 -0.608834 0.210371 0.836598 -0.470979 0.279791 
-0.671677 -0.740773 -0.0102752 -0.295957 -0.955169 0.00787685 0.0365529 -0.999289 0.0092097 
0.424254 -0.902368 0.0757598 -0.756608 0.229579 0.612239 -0.767186 0.264144 0.584512 
-0.771584 0.232344 0.592178 -0.627145 0.257101 0.735247 -0.539841 0.833978 -0.114248 
-0.785618 0.614281 -0.0739158 0.157049 0.975024 -0.157049 0.679747 0.693502 -0.238744 
0.693502 0.679747 -0.238744 -0.744924 0.0494936 0.665311 -0.277689 0.717887 -0.638378 
-0.930391 0.292331 -0.221168 0.964566 0.213246 -0.155365 -0.424793 0.485979 -0.76379 
-0.443402 0.519304 -0.73056 -0.477256 0.521402 -0.707366 0.964516 -0.188466 -0.184905 
-0.520332 0.242561 -0.818791 -0.673547 -0.0130571 -0.739029 0.852232 -0.418693 -0.313683 
-0.640212 -0.285377 -0.713224 -0.685059 -0.644662 -0.339271 -0.459377 -0.573316 -0.678441 
0.436365 -0.685767 -0.582503 0.776197 -0.512237 -0.367603 -0.217726 -0.671314 -0.708472 
0.0277834 -0.685984 -0.727086 0.247025 -0.740049 -0.625545 -0.803245 0.271983 0.529928 
-0.327996 0.67171 -0.664247 -0.342789 0.664265 -0.664265 0.238744 0.693502 -0.679747 
0.68267 0.68267 -0.260623 0.260623 0.68267 -0.68267 -0.787159 0.0394662 -0.615486 
0.67995 0.274473 -0.67995 0.69088 0.253215 -0.677176 -0.46355 0.512653 -0.722709 
-0.658457 -0.35619 -0.662995 0.684697 -0.203471 -0.69985 -0.58866 0.0125917 -0.808283 
-0.26393 0.021942 -0.964292 -0.50633 -0.459652 -0.729623 -0.189699 -0.418925 -0.887985 
0.0147251 -0.557734 -0.829889 0.0571206 -0.595691 -0.80118 0.65471 -0.24425 -0.71533 
0.752292 -0.482235 -0.448894 -0.19214 -0.522992 -0.830398 0.0103377 -0.558558 -0.829401 
0.214107 -0.674483 -0.706563 -0.327996 0.664247 -0.67171 0.238744 0.679747 -0.693502 
-0.539486 0.119792 -0.833429 0.156267 0.185375 -0.970163 0.677176 0.253215 -0.69088 
-0.571802 -0.403672 -0.714207 0.105676 -0.358217 -0.927639 0.661102 -0.204403 -0.721917 
-0.134158 -0 0.99096 -0.369532 0.538172 0.757507 -0.794463 -0 0.607313 
0.485494 0.159002 0.859659 0.492383 0.238684 0.837012 0.53932 0.187192 0.821032 
-0.446278 -0.511922 0.734011 0.491613 0.0548871 0.869082 -0.691593 0.506066 -0.51536 
-0.903629 -0.0651736 -0.423328 0.79505 0.489288 -0.35846 0.894487 -0.0371511 -0.445548 
-0.608257 -0.581942 -0.539784 0.635668 -0.577984 -0.511724 -0.444943 -0.151696 -0.882618 
0.636065 -0.232388 -0.73581 -0.259903 0.479161 0.838364 -0.266208 0.496422 0.826256 
-0.288059 0.492488 0.821266 -0.216779 0.477077 0.851707 0.440965 -0.414336 0.796163 
0.221008 -0.414863 0.882635 0.457456 -0.439206 0.773196 0.445098 -0.463844 0.765987 
-0.486136 0.795482 -0.361773 -0.636208 0.688295 -0.348552 0.230952 0.865775 -0.443953 
-0.930286 -0.219232 -0.294117 0.809354 -0.474888 0.345584 -0.101748 -0.951822 0.289278 
-0.446832 0.726737 -0.521723 -0.491375 0.337877 -0.802739 -0.628861 0.217902 -0.74636 
-0.0252975 0.366862 -0.929932 -0.684747 -0.411725 -0.601335 -0.540962 0.288356 -0.79007 
0.163164 0.248315 0.954839 -0.0831502 0.737798 0.669881 -0.893503 -0.000533525 0.449058 
0.605193 0.0392733 0.795109 -0.168894 -0.939262 0.298767 -0.341489 0.672137 -0.656976 
-0.54457 -0.234102 -0.805382 0.943716 -0.170143 -0.283638 0.882043 0.0533403 -0.46814 
0.871915 -0.182622 -0.454328 -0.439664 -0.437398 -0.784461 0.813875 -0.327381 -0.480031 
-0.406957 -0.186319 -0.894243 0.804218 -0.186335 -0.564369 -0.628624 0.646163 0.432788 
-0.64517 0.671448 0.364572 -0.683649 0.633195 0.362889 -0.268819 0.404047 0.874347 
-0.467983 0.746248 0.473399 0.0559089 -0.118594 0.991368 -0.00294126 0.967963 0.251074 
0.752424 -0.0194186 0.658393 0.841772 0.40714 0.354481 0.926653 0.0638578 0.370455 
-0.511361 0.0702713 0.856488 -0.905457 0.000195699 0.424437 0.335396 -0.343105 0.877376 
0.320564 -0.733369 0.599507 0.345661 -0.739648 0.577441 0.781525 -0.336886 0.525096 
-0.569358 -0.598672 0.563403 -0.692023 -0.599038 0.402813 -0.275708 -0.755981 0.593698 
0.565041 -0.522168 0.638803 0.3303 -0.740424 0.585384 -0.605177 -0.666308 0.435654 
0.0152272 0.978535 0.20552 0.107527 0.994202 -0 0.0599856 0.998155 0.00942881 
0.141283 0.989968 -0.001454 -0.676931 0.718118 0.161465 -0.82253 0.558634 0.106644 
-0.383703 0.91634 0.114424 0.833882 0.54932 0.0537395 0.96292 0.26353 0.0577643 
-0.991453 -0.093864 0.0906104 0.706931 -0.589354 0.391037 0.756717 -0.549143 0.354713 
-0.811703 -0.515431 0.274716 0.506112 -0.461935 0.728331 0.419867 -0.491835 0.762765 
0.435347 -0.678878 0.591267 0.729287 -0.569091 0.379837 -0.761746 -0.614624 0.204891 
0.436235 -0.525555 0.730405 -0.606734 -0.711929 0.353597 0.438655 -0.417491 0.795791 
0.227469 -0.630851 0.741812 -0.37257 -0.0281115 0.927578 -0.489151 0.866137 -0.102652 
-0.907986 0.380077 0.176361 0.85206 0.124586 0.508401 0.785983 0.616187 0.0504316 
0.93608 0.257959 0.23919 -0.436542 -0.544034 0.71656 -0.637695 -0.504758 0.581864 
0.676951 -0.269389 0.684958 0.779197 -0.229594 0.583214 -0.564681 -0.578859 0.588267 
0.661596 -0.405492 0.630767 0.110031 0.983247 -0.145322 -0.657447 0.725425 -0.203771 
-0.836695 0.501153 -0.22088 -0.291351 0.927146 -0.235618 0.110623 0.978984 -0.171324 
0.750688 0.657597 -0.0635037 0.929605 0.368387 -0.0112445 -0.989695 0.00271464 -0.143166 
0.928218 -0.356004 0.108038 -0.948068 -0.317192 -0.0235862 0.602268 -0.508968 0.615 
0.733758 -0.48378 0.477029 0.839117 -0.482356 0.251428 -0.804965 -0.590715 -0.0555619 
-0.81786 -0.542358 -0.19223 0.757917 -0.292599 0.58305 0.825505 -0.372364 0.42413 
-0.808706 -0.557374 -0.187962 -0.243971 -0.956798 0.158165 0.705261 -0.608539 0.363712 
-0.301018 0.584477 -0.753509 -0.33028 0.569384 -0.752806 0.699283 0.508039 -0.502892 
-0.0332889 0.601422 -0.798238 -0.606543 -0.365227 -0.706198 0.645547 0.252742 -0.720688 
0.738008 -0.135996 -0.660946 -0.461163 -0.496657 -0.735296 0.638475 -0.28257 -0.715894 
-0.619307 0.62734 -0.472126 -0.478321 0.676862 -0.559523 -0.349048 0.758503 -0.550307 
-0.0277669 0.840472 -0.541143 0.60215 0.609689 -0.515456 0.745306 0.434599 -0.505612 
-0.652491 0.526339 -0.545182 -0.909186 0.106014 -0.402669 0.879256 -0.197113 -0.433653 
-0.793517 -0.375782 -0.478663 0.865593 -0.39972 -0.301618 0.880631 -0.343339 -0.326509 
-0.748703 -0.418826 -0.513837 -0.807343 -0.545642 -0.224659 -0.545884 -0.494126 -0.676646 
0.696134 -0.53623 -0.477341 -0.383171 -0.669677 -0.63617 0.451701 -0.719404 -0.52766 
-0.298751 0.564864 -0.769206 -0.399425 -0.348216 -0.848059 0.661928 -0.141775 -0.736037 
-0.341865 0.736838 -0.583264 0.0830566 0.578419 -0.8115 0.614719 0.434828 -0.658062 
-0.775348 0.104152 -0.622887 -0.468947 0.0621951 -0.881034 -0.278115 0.335192 -0.900166 
0.348536 0.0665048 -0.934933 0.774968 -0.152082 -0.61343 0.439603 -0.11966 -0.890186 
-0.728879 -0.414293 -0.545066 -0.180264 -0.216392 -0.95952 -0.157364 -0.491053 -0.856798 
0.389519 -0.172185 -0.90478 0.385649 -0.446466 -0.80743 -0.340998 -0.448468 -0.826194 
0.365398 -0.48317 -0.795632 -0.175172 0.0200439 -0.984334 0.41509 -0.126424 -0.900954 
-0.685354 0.564424 0.460126 -0.686118 0.604248 0.405127 -0.723736 0.560653 0.402337 
0.2737 0.646327 0.712285 0.234839 0.760458 0.605438 0.360383 0.629049 0.688783 
-0.732725 -0.565648 0.37836 -0.7332 -0.565533 0.377612 0.132654 -0.509672 0.85008 
0.527197 -0.396002 0.751828 -0.732754 -0.566084 0.37765 0.0613264 -0.818412 0.57135 
-0.795337 0.576787 -0.186428 -0.860746 0.472336 -0.189776 -0.0941068 0.995414 0.0171728 
0.532384 0.631933 0.563231 0.386331 0.87521 0.291128 0.726146 0.584992 0.361241 
-0.800551 -0.549402 -0.239322 0.652391 -0.407297 0.639136 0.780707 -0.60299 0.164013 
-0.786319 -0.569384 -0.2398 -0.184901 -0.980246 -0.0702091 0.424721 -0.89869 0.109398 
-0.824258 0.452606 -0.340216 -0.475709 0.497182 -0.725611 -0.237481 0.696636 -0.67698 
0.303607 0.677478 -0.669959 0.472894 0.522972 -0.709134 -0.791769 -0.550578 -0.264511 
-0.48812 -0.583785 -0.648794 0.478445 -0.588372 -0.65185 -0.317278 -0.725858 -0.610299 
0.410104 -0.651603 -0.638145 -0.460476 0.203982 0.863918 -0.646982 0.751672 0.128076 
-0.861122 0.414206 0.294793 0.915672 -0.188941 0.354749 0.979254 0.202506 -0.00732352 
0.967049 -0.140131 0.212556 -0.19705 -0.877209 0.437807 -0.198198 -0.877204 0.4373 
-0.194409 -0.878165 0.437071 0.915543 -0.324143 0.238144 -0.197013 -0.877617 0.437005 
-0.23312 0.569534 -0.788217 0.319159 0.549647 -0.772027 -0.30627 -0.554707 -0.773627 
0.42715 -0.56508 -0.705852 -0.291366 0.500873 -0.815004 0.993336 -0.0691643 -0.0921962 
-0.196545 -0.880611 0.431154 0.241244 0.0876841 0.966495 0.0619102 0.397395 0.915557 
-0.22564 0.232322 0.946104 0.315954 0.124157 0.940616 0.130467 -0.0448766 0.990437 
-0.641369 0.210986 0.737652 -0.612456 0.225569 0.757639 -0.625754 0.205437 0.752481 
0.21693 0.890508 0.399921 0.805037 0.455299 0.380286 -0.632313 0.15529 0.75899 
0.0473649 -0.561508 0.826114 0.0087397 -0.575081 0.818049 0.085055 -0.55067 0.830379 
0.0250186 -0.575216 0.817619 -0.0709159 0.640262 0.764876 0.0244058 0.627667 0.778099 
-0.48263 0.587856 0.649225 0.37937 0.697803 0.607576 -0.795378 0.0775597 0.601131 
-0.783946 0.28732 0.550342 -0.84637 0.0476907 0.530456 0.581296 0.691607 0.42869 
0.839726 0.5151 0.17185 0.82947 0.53438 0.162537 0.835836 0.525027 0.160392 
-0.730645 -0.372453 0.57222 -0.377766 -0.797238 0.470855 -0.420689 -0.767235 0.48412 
0.912611 -0.270717 0.306355 0.950415 -0.248818 0.186552 -0.370471 -0.80213 0.468335 
-0.204401 -0.898255 0.389048 0.922399 -0.338096 0.186736 -0.200062 0.754306 0.625298 
-0.367494 0.799157 0.475706 -0.445122 0.747225 0.493478 0.456412 0.445349 0.770294 
-0.78058 0.500666 0.374203 -0.800559 0.509441 0.315556 -0.82199 0.482718 0.302185 
0.626636 0.612569 0.481754 0.520712 0.400244 0.754098 0.677457 0.461736 0.572584 
-0.943092 0.126662 0.307465 0.89966 0.320126 0.296868 0.971781 0.186368 0.144598 
-0.622311 -0.609396 0.49129 -0.822282 -0.430895 0.371728 0.945561 -0.302214 -0.120752 
-0.606169 -0.655538 0.450366 -0.25647 -0.733522 0.62942 -0.0505695 -0.925603 0.375102 
-0.075196 -0.833226 0.547795 0.439624 -0.849403 0.291969 0.943114 -0.309147 -0.122326 
0.0886204 -0.898902 0.429094 -0.452004 0.891496 0.0304478 -0.687008 0.692164 0.2212 
0.509885 0.40562 0.75861 0.116792 0.993109 -0.00967793 0.631709 0.460481 0.623619 
0.646762 0.566584 0.510569 0.689174 0.456512 0.562704 -0.735239 0.638211 0.228277 
-0.895727 0.404697 0.184104 0.85829 0.27262 0.43476 0.962608 0.00584063 0.270834 
-0.997509 0.0569716 0.0415919 0.958342 -0.245614 -0.145788 -0.928714 -0.368847 -0.0379644 
0.940621 -0.316814 -0.121903 0.919365 -0.381801 -0.0948495 0.930103 -0.338337 -0.142958 
-0.692412 -0.720509 -0.0378525 -0.264131 -0.799237 0.539866 -0.620473 -0.784227 0.000814774 
0.784714 -0.615244 -0.0754921 -0.30121 -0.935546 0.184464 0.416883 -0.902935 -0.104483 
-0.262924 0.554623 0.789471 -0.291783 0.731416 0.616355 -0.602329 0.608104 0.517116 
0.290427 0.290827 0.911631 0.279349 0.640618 0.715243 0.659913 0.223119 0.717449 
-0.694071 0.0133438 0.719783 -0.791716 0.283545 0.541098 -0.776869 0.0203961 0.629332 
-0.04985 -0.0280984 0.998361 0.577477 -0.227495 0.78407 0.752166 -0.310794 0.58108 
-0.697971 -0.347293 0.626278 -0.394532 -0.670166 0.628667 0.0164372 -0.68303 0.730206 
0.380295 -0.726605 0.572207 0.643592 -0.534394 0.547917 0.0297555 -0.792886 0.608643 
-0.284457 0.89802 -0.335626 -0.640703 0.722577 -0.259579 0.0768176 0.872048 -0.483354 
0.596319 0.711192 -0.372304 0.816834 0.47552 -0.326594 -0.680774 0.68761 -0.252465 
-0.918551 0.316181 -0.237261 0.816486 -0.296272 -0.495554 0.785802 -0.298134 -0.541878 
0.797931 -0.262696 -0.542492 -0.934628 -0.0890037 -0.344308 0.911285 -0.164452 -0.377511 
0.868199 -0.0453335 -0.494141 -0.820904 -0.409698 -0.397823 0.904326 -0.288339 -0.314732 
-0.756092 -0.518393 -0.399492 -0.490149 -0.790428 -0.367394 0.574009 -0.71356 -0.40168 
-0.267328 -0.907596 -0.323738 0.465001 -0.773555 -0.430565 -0.558986 0.735627 -0.382606 
-0.618535 0.645525 -0.448009 0.272479 0.907527 -0.31961 0.901077 0.163117 -0.401813 
-0.720897 0.492883 -0.48721 -0.927791 0.225797 -0.297018 0.834634 -0.397574 -0.38121 
-0.744744 -0.661739 -0.0863583 -0.726517 -0.618814 -0.298735 0.621933 -0.724389 -0.297423 
0.702379 -0.639655 -0.312257 -0.706435 -0.638257 -0.305905 0.113194 -0.963557 -0.242373 
-0.289009 0.702537 -0.65032 0.133419 0.585516 -0.799607 0.608778 0.482791 -0.629526 
-0.666473 0.298201 -0.683293 -0.607917 0.299134 -0.735497 -0.25717 0.630144 -0.732654 
0.216498 0.495947 -0.840931 0.526386 0.0613139 -0.848032 -0.669277 -0.168298 -0.723701 
-0.668431 -0.177434 -0.7223 0.594909 -0.0122043 -0.8037 -0.668271 -0.177979 -0.722314 
-0.749423 -0.423168 -0.50921 -0.443562 -0.392801 -0.805581 0.50713 -0.302118 -0.807182 
-0.223436 -0.536644 -0.813689 -0.24412 -0.796587 -0.553041 0.462163 -0.362487 -0.809326 
0.482431 -0.724445 -0.492382 -0.547475 0.541506 -0.637999 0.31485 0.243514 -0.917372 
-0.798549 0.402004 0.448008 -0.838742 0.53367 0.108204 -0.967512 0.232456 -0.0994181 
-0.40432 0.619713 -0.672668 -0.614097 0.282564 -0.736914 -0.0450644 0.10194 -0.993769 
0.627516 -0.326112 -0.707018 -0.796062 -0.593461 -0.118704 -0.710587 -0.617058 -0.338092 
0.0913392 -0.7155 -0.692616 0.502572 0.22414 0.834975 0.52658 0.365995 0.767308 
0.187395 0.255809 0.948391 0.603878 0.240405 0.759958 0.5047 0.0149311 0.863166 
-0.403631 0.045619 0.913784 -0.451486 0.676199 0.582164 -0.800506 0.0496077 0.597269 
0.506509 0.0238086 0.861906 0.390355 0.760567 0.518807 0.88181 0.0201857 0.471173 
-0.361184 -0.745588 0.56004 -0.361858 -0.745641 0.559534 0.372587 -0.77961 0.503375 
0.390307 -0.779636 0.489722 -0.361144 -0.746065 0.55943 0.372724 -0.787493 0.490847 
-0.0716341 0.279286 -0.957532 0.493393 0.0995357 -0.864093 -0.668055 -0.177424 -0.72265 
-0.060874 -0.0380668 -0.997419 0.541608 0.012331 -0.840541 -0.215188 -0.325629 -0.920685 
0.453752 -0.290896 -0.842312 -0.906006 0.197982 -0.374107 -0.48204 -0.00506293 0.876134 
-0.468374 0.22003 0.855694 -0.518709 -0.00759667 0.854917 -0.240519 0.125038 0.962557 
0.0238354 0.509829 0.859946 -0.436952 0.241506 0.866457 0.097808 0.711282 0.696069 
0.566906 0.727744 0.386014 0.839782 0.384829 0.38298 -0.541438 -0.159163 0.825538 
-0.508497 -0.28676 0.811911 -0.27298 -0.132921 0.952793 -0.230152 -0.177272 0.956873 
0.477679 -0.382054 0.791111 0.866964 -0.0858047 0.490928 -0.491511 -0.39866 0.774265 
-0.493721 -0.408669 0.767613 -0.138569 -0.201172 0.969705 0.530464 -0.172026 0.83007 
0.707366 -0.0640279 0.703942 -0.365715 -0.55729 0.74544 -0.404018 -0.576004 0.710626 
0.346264 -0.353222 0.8691 0.529391 -0.28789 0.798038 -0.385134 -0.596792 0.703926 
0.262173 -0.586957 0.765994 -0.374152 0.521544 -0.766813 -0.663576 0.116082 -0.739048 
0.534115 0.410852 -0.738865 0.701149 0.0471771 -0.711452 -0.335367 -0.750724 -0.569159 
0.436202 -0.835859 0.333267 0.0532904 -0.778518 -0.625356 0.555616 -0.501693 -0.66302 
-0.27201 -0.779057 -0.564873 -0.42552 0.551031 0.717842 -0.35774 0.923577 0.137939 
-0.763472 0.570372 0.302961 0.0775214 0.634052 0.769395 0.0378864 0.965961 0.255897 
0.215289 0.837398 0.502409 0.267237 0.921574 0.281579 0.56251 0.811836 0.15654 
0.568024 0.810456 0.143216 0.584425 0.79923 0.140283 -0.892724 -0.075584 0.444219 
0.977043 0.21124 -0.0276593 -0.602176 -0.357982 0.713606 -0.77179 -0.436364 0.462521 