# vtk DataFile Version 4.0
vtk output
ASCII
DATASET POLYDATA
POINTS 8146 float
28 -70 -54.0519 28 -70.1121 -54 28.0898 -70 -54 
27.927 -70 -54 28 -69.962 -54 30 -74 -52.0746 
30 -74.1049 -52 30.0944 -74 -52 28 -74 -52.0669 
28 -74.0925 -52 27.9233 -74 -52 30 -72 -52.7881 
30.6632 -72 -52 28 -72 -53.2557 27.1157 -72 -52 
30 -70 -52.6897 30.3414 -70 -52 27.437 -70 -52 
30 -69.5888 -52 28 -69.495 -52 30 -75.4424 -50 
31.1346 -74 -50 28 -75.6131 -50 27.0797 -74 -50 
30.9688 -72 -50 27.1539 -72 -50 30.4378 -70 -50 
27.8404 -70 -50 30 -69.3827 -50 28 -69.8072 -50 
30 -74 -48.3925 28 -74 -48.2878 30 -72 -48.5443 
28 -72 -48.4049 30 -70 -49.3073 28 -70 -49.7566 
36 -64 -36.0746 36 -64.1049 -36 36.1049 -64 -36 
34 -64 -36.5997 34 -64.8267 -36 32 -64 -36.3394 
32 -64.4833 -36 30.1555 -64 -36 28 -64 -36.0313 
28 -64.0463 -36 29 -64 -36 27.9269 -64 -36 
-34 -64 -36.3984 -34 -64.3984 -36 -32.5426 -64 -36 
-35.4574 -64 -36 36 -62 -36.5014 36.606 -62 -36 
34 -62 -37 32 -62 -36.9141 30 -63.9406 -36 
30 -62 -36.8049 28 -62 -36.8225 26 -62.1628 -36 
26 -62 -36.0774 25.9226 -62 -36 -32 -62 -36.3752 
-32 -63.4445 -36 -31.5427 -62 -36 -34 -62 -36.8049 
-36 -63.3625 -36 -36 -62 -36.319 -36.3585 -62 -36 
36 -60 -36.2237 36.2683 -60 -36 34 -60 -36.9141 
32 -60 -36.9141 30 -60 -36.8049 28 -60 -36.8225 
26 -60 -36.0774 25.9226 -60 -36 -32 -60.9162 -36 
-34 -60.3092 -36 -36 -61.2007 -36 36 -59.5344 -36 
34.9183 -58 -36 34 -58 -36.5563 32 -58 -36.4638 
30.3259 -58 -36 30 -58.1823 -36 28 -58.3138 -36 
26 -59.87 -36 34 -56.9492 -36 32 -57.2205 -36 
36 -66 -34.3702 36 -66.2835 -34 36.668 -66 -34 
34 -66 -34.8734 34 -66.6842 -34 32 -66 -34.8533 
32 -66.8533 -34 30 -66 -34.7341 30 -66.8036 -34 
28 -66 -34.6528 28 -66.5967 -34 26.4137 -66 -34 
38 -64 -34.5704 38 -64.9367 -34 38.8359 -64 -34 
30 -64 -35.9687 26 -64 -35.1069 26 -65.7193 -34 
25 -64 -34 -32 -64 -35.6608 -32 -64.667 -34 
-31.0988 -64 -34 -34 -65 -34 -36 -64 -35.6608 
-36 -64.667 -34 -36.9012 -64 -34 38 -62 -34.3455 
38.3302 -62 -34 24.5881 -62 -34 -30.5974 -62 -34 
-37.1718 -62 -34 38 -60 -34.1453 38.1324 -60 -34 
24.8466 -60 -34 -32 -60 -35.5499 -30.745 -60 -34 
-34 -60 -35.7944 -36 -60 -35.2508 -36.7301 -60 -34 
38 -59.7574 -34 36 -58 -35.0936 37.0408 -58 -34 
30 -58 -35.889 28 -58 -35.7032 26.2968 -58 -34 
26 -58.2654 -34 -32 -58.3729 -34 -34 -58.0376 -34 
-36 -58.6777 -34 36 -56.8575 -34 34 -56 -35.1998 
35.119 -56 -34 32 -56 -35.14 30 -56 -34.3202 
29.5574 -56 -34 28 -56.947 -34 34 -55.1467 -34 
32 -54.9234 -34 30 -55.6582 -34 38 -66 -33.1834 
38 -66.7058 -32 39.8261 -66 -32 36 -66.9141 -32 
34 -67.2296 -32 32 -67.8746 -32 30 -67.9465 -32 
28 -67.4207 -32 26 -66 -33.6771 26 -66.7536 -32 
24.9753 -66 -32 40 -64 -32.7203 40 -65.6669 -32 
40.3851 -64 -32 24 -64 -32.5327 24 -64.6207 -32 
23.613 -64 -32 -32 -64.646 -32 -31.1504 -64 -32 
-34 -65 -32 -36 -64.5741 -32 -36.7091 -64 -32 
40 -63.1211 -32 39.4739 -62 -32 24 -62 -32.9397 
23.3466 -62 -32 -30.7246 -62 -32 -37.2942 -62 -32 
39.2919 -60 -32 24.4099 -60 -32 24 -60.7747 -32 
-30.8282 -60 -32 -37.1539 -60 -32 38 -58 -32.6288 
38.4132 -58 -32 26.6121 -58 -32 26 -58.5477 -32 
-32 -58 -33.3511 -31.4608 -58 -32 -34 -58 -33.9614 
-36 -58 -33.3063 -36.7781 -58 -32 38 -57.5868 -32 
36 -56 -32.2899 36.1453 -56 -32 28.6859 -56 -32 
28 -56.7581 -32 -32 -57.3799 -32 -34 -56.2995 -32 
-36 -57.0182 -32 36 -55.8676 -32 34 -54.4291 -32 
32 -54 -32.3738 32.6758 -54 -32 31.0497 -54 -32 
30 -54.2976 -32 32 -53.795 -32 38 -66.5741 -30 
39.3481 -66 -30 36 -66.8839 -30 34 -67.188 -30 
32 -67.6213 -30 30 -67.7066 -30 28 -67.7134 -30 
26 -67.2457 -30 24.2511 -66 -30 40 -64 -30.0532 
39.9859 -64 -30 24 -65.5244 -30 23.4309 -64 -30 
-32 -64.7584 -30 -31.0538 -64 -30 -34 -65.1951 -30 
-36 -64.6418 -30 -36.7581 -64 -30 39.225 -62 -30 
24 -62 -30.1949 24.0616 -62 -30 24 -62.1747 -30 
-30.8906 -62 -30 -37.8789 -62 -30 38.9001 -60 -30 
25.0766 -60 -30 -31.2941 -60 -30 -38 -60.4863 -30 
-38 -60 -30.0732 -38.0424 -60 -30 38.0669 -58 -30 
27 -58 -30 26 -59 -30 -31.795 -58 -30 
-37.9559 -58 -30 -38 -59 -30 38 -57.9303 -30 
36 -56.5153 -30 36 -56 -31.6399 35.0633 -56 -30 
29.0905 -56 -30 28 -57 -30 -32 -57.6877 -30 
-34 -56 -31.2674 -33.4127 -56 -30 -36 -56 -30.5333 
-36.3873 -56 -30 34 -55.3765 -30 32 -54.7298 -30 
32 -54 -31.5127 30 -54.9071 -30 -34 -55.5629 -30 
-36 -55.7165 -30 38 -66 -29.2909 36.1181 -66 -28 
36 -66.0804 -28 34 -66.8591 -28 32 -67.0218 -28 
30 -66.9476 -28 28 -67.3364 -28 26 -67.2717 -28 
24.7136 -66 -28 38 -64 -28.4356 37.359 -64 -28 
24 -64 -28.331 24.1211 -64 -28 -32 -64.0944 -28 
-31.9098 -64 -28 -34 -65.1456 -28 -36 -64.6299 -28 
-36.7091 -64 -28 38 -62 -28.2532 37.6862 -62 -28 
24.7059 -62 -28 -31.694 -62 -28 -37.9869 -62 -28 
38 -60 -28.7913 37.1285 -60 -28 25.4437 -60 -28 
-32 -61.332 -28 -32 -60 -28.8166 -32.6785 -60 -28 
-38 -61.9581 -28 -38.5455 -60 -28 38 -58 -29.9174 
36 -58.0257 -28 36 -58 -28.0147 35.9654 -58 -28 
27.6877 -58 -28 26 -59.2909 -28 -32 -58 -29.6877 
-33.1884 -58 -28 -38 -58 -29.8746 -38.7206 -58 -28 
34 -57.2909 -28 34 -56 -29.3215 32 -57.1376 -28 
32 -56 -28.8921 30 -57.1733 -28 30 -56 -29.1266 
28 -57.7702 -28 -34 -56.3468 -28 -34 -56 -28.5126 
-35.0725 -56 -28 -36.2503 -56 -28 -38 -57.2564 -28 
-36 -55.8579 -28 36 -66 -27.9098 34 -66 -26.7777 
32 -66 -26.3328 30.9185 -66 -26 30 -66.1778 -26 
28 -66.6632 -26 26 -66.0944 -26 25.9157 -66 -26 
36 -64 -27.209 34 -64 -26.7059 32 -64 -26.1473 
31.7668 -64 -26 25.3472 -64 -26 -32 -64 -27.9157 
-34 -64 -26.7418 -36 -64 -26.884 36 -62 -27.1775 
34 -62 -27 32 -62 -26.6672 30.7968 -62 -26 
25.5131 -62 -26 -32 -62 -27.6622 -34 -62 -26.1986 
-36 -62 -26.0131 36 -60 -27.2941 34 -60 -27 
32 -60 -26.9141 30 -61 -26 30 -60 -26.4638 
28.7256 -60 -26 26 -60 -26.5425 26.8851 -60 -26 
26 -60.6593 -26 -34 -60 -26.8921 -36 -60 -26.3654 
-38 -60 -27.2807 34 -58 -27.4437 32 -58 -27.4003 
30 -58 -27.3582 28 -59.6298 -26 28 -58 -27.7193 
-34 -58 -27.2481 -36 -58 -26.3676 -38 -58 -26.9836 
-36 -56 -27.8029 8 -76 -24.6842 8 -76.9338 -24 
8.75484 -76 -24 6 -76 -24.637 6 -77.0164 -24 
5.09353 -76 -24 8 -74 -25.4424 9.8153 -74 -24 
6 -74 -24.4305 5.64537 -74 -24 8 -72 -24.0028 
8.00405 -72 -24 7.99498 -72 -24 6 -73.4196 -24 
8 -71.998 -24 30 -66 -25.5926 28 -66 -24.8968 
26 -66 -25.9098 30 -64 -24.6333 28 -64 -24.5469 
26 -64 -25.4033 30 -62 -25.4739 28 -62 -25 
26 -62 -25.5484 28 -60 -25.7165 8 -76.9322 -22 
9.27751 -76 -22 6 -76.5882 -22 5.28459 -76 -22 
10 -74 -23.7937 10 -75.372 -22 11.0739 -74 -22 
5.76997 -74 -22 10 -72 -22.5942 10.5055 -72 -22 
7.28998 -72 -22 6 -73.6754 -22 10 -71.639 -22 
8 -71.4986 -22 8 -76 -20.7013 6 -76 -21.3955 
10 -74.3282 -20 10.3185 -74 -20 8 -75.1715 -20 
6 -74 -21.5589 7.07281 -74 -20 10.1866 -72 -20 
8 -72 -20.4336 9.20355 -72 -20 8 -72.4095 -20 
10 -71.889 -20 10 -74 -19.7682 8 -74 -19.4503 
10 -72 -19.889 34 20 -8.22371 34 19.7317 -8 
35.1563 20 -8 33.5344 20 -8 36 22 -8.5102 
36 20.4538 -8 36.602 22 -8 34 22 -8.82247 
32 21.6026 -8 32 22 -8.17911 31.6798 22 -8 
36 23.7465 -8 35.2725 24 -8 34 24 -8.14726 
33.4828 24 -8 32 22.6223 -8 34 24.16 -8 
36 20 -7.7518 36 18.7804 -6 37.2196 20 -6 
34 18.0424 -6 32 20 -7.21964 32 18.7804 -6 
30.2482 20 -6 38 22 -6.04632 38 21.9202 -6 
38.0313 22 -6 30 22 -6.89579 30 20.3468 -6 
29.2862 22 -6 38 22.0995 -6 36 24 -7.88576 
37.3898 24 -6 32 24 -7.54494 30 24 -6.99431 
29.1713 24 -6 -30 24 -6.1421 -30 22.5376 -6 
-29.7668 24 -6 -32 24 -6.28352 -32 22.189 -6 
-32.4685 24 -6 36 25.6591 -6 34 25.7054 -6 
32 25.5102 -6 30 25.3223 -6 -30 24.2566 -6 
-32 24.6833 -6 36 18 -4.56937 36 17.7165 -4 
36.3702 18 -4 34 18 -5.92678 34 17.1775 -4 
32 18 -4.82283 32 17.5361 -4 31.1772 18 -4 
38 20 -4.56937 38 19.6298 -4 38.2835 20 -4 
30 20 -5.71932 30 18.8487 -4 29.0337 20 -4 
-28 20 -4.29461 -28 19.6798 -4 -27.5151 20 -4 
-30 20 -4.81158 -30 19.1884 -4 -32 20 -4.91646 
-32 19.0835 -4 -34 20 -4.0998 -34 19.9002 -4 
-34.0804 20 -4 38.8225 22 -4 28.3394 22 -4 
-26 22 -4.07739 -26 21.8492 -4 -25.9226 22 -4 
-28 22 -5.20895 -30 22 -5.94645 -32 22 -5.96759 
-34 22 -5.08782 -34.7078 22 -4 38 24 -4.76594 
38.3394 24 -4 28.1254 24 -4 -26 22.9394 -4 
-26.1403 24 -4 -28 24 -5 -34 24 -4.63445 
-34.4141 24 -4 38 24.4833 -4 36 26 -5.43508 
36.7581 26 -4 34 26 -5.66653 32 26 -5.46553 
30 26 -5.13607 29.3542 26 -4 -28 25.3498 -4 
-30 26 -4.76795 -28.9259 26 -4 -32 26 -5.10322 
-32.9259 26 -4 -34 24.7115 -4 36 26.7304 -4 
34 27.6064 -4 32 27.2474 -4 30 26.5212 -4 
-30 26.6063 -4 -32 26.6418 -4 36 17.6606 -2 
36.4833 18 -2 34 17.0859 -2 32 17.0859 -2 
30 18 -2.56937 30 17.7165 -2 29.6298 18 -2 
-30 18 -2.55056 -30 17.5792 -2 -28.1322 18 -2 
-32 18 -2.92404 -32 17.2074 -2 -33.9743 18 -2 
38 19.2909 -2 38.5563 20 -2 28 20 -2.2332 
28 19.8029 -2 27.8579 20 -2 -26 20 -2.88485 
-26 18.7453 -2 -25.3368 20 -2 -28 18.0339 -2 
-34 18.0197 -2 -34.884 20 -2 39 22 -2 
28 22 -3.40028 27.2941 22 -2 -24.8906 22 -2 
-35 22 -2 38.5997 24 -2 28 24 -3.70239 
27.4003 24 -2 -26 24 -3.87197 -25.0287 24 -2 
-34.9141 24 -2 38 24.8267 -2 37 26 -2 
28.7593 26 -2 28 25.0303 -2 -26 25.872 -2 
-28 26 -3.34977 -26.1403 26 -2 -34 26 -2.16279 
-34.0774 26 -2 36 27 -2 34 28 -3.22534 
34.71 28 -2 32 28 -2.65998 31.4932 28 -2 
30 27 -2 -28 27 -2 -30 27.6579 -2 
-32 27.209 -2 -34 26.0774 -2 34 28.4858 -2 
32 28.3394 -2 36 18 -0.43293 35.8177 18 0 
34 17.1951 0 32 17 0 30 17.4003 0 
29.1733 18 0 -26 18 -0.388256 -26 17.8456 0 
-25.8845 18 0 -28 18 -1.91228 -28 17.3461 0 
-30 16.9824 0 -32 16.6177 0 -34 18 -1.90602 
-34 17.7317 0 -34.2237 18 0 38 19.9233 0 
38.0616 20 0 36 18.111 0 28 19.1733 0 
27.4003 20 0 -24.9455 20 0 -34.9141 20 0 
38.5997 22 0 27 22 0 -24.5339 22 0 
-35 22 0 38.205 24 0 27.1775 24 0 
-24.8049 24 0 -34.9141 24 0 38 24.3123 0 
36.8533 26 0 28.3455 26 0 28 25.5951 0 
-26 26 -1.77152 -25.4259 26 0 -34.0774 26 0 
36 26.8533 0 34.3124 28 0 31.648 28 0 
30 27.1175 0 -26 26.7091 0 -28 27.6606 0 
-30 27.8789 0 -32 27.209 0 -34 26.0774 0 
34 28.205 0 32 28.205 0 36 18 0.830742 
36 17.8527 2 36.16 18 2 34 17.0859 2 
32 17 2 30 17.2941 2 28.8715 18 2 
[...]
POINT_DATA 8146
SCALARS scalars unsigned_short
LOOKUP_TABLE default
1 1 1 1 1 1 1 1 1 
1 1 1 1 1 1 1 1 1 
1 1 1 1 1 1 1 1 1 
1 1 1 1 1 1 1 1 1 
1 1 1 1 1 1 1 1 1 
1 1 1 1 1 1 1 1 1 
1 1 1 1 1 1 1 1 1 
1 1 1 1 1 1 1 1 1 
1 1 1 1 1 1 1 1 1 
1 1 1 1 1 1 1 1 1 
1 1 1 1 1 1 1 1 1 
1 1 1 1 1 1 1 1 1 
1 1 1 1 1 1 1 1 1 
1 1 1 1 1 1 1 1 1 
1 1 1 1 1 1 1 1 1 
1 1 1 1 1 1 1 1 1 
1 1 1 1 1 1 1 1 1 
1 1 1 1 1 1 1 1 1 
1 1 1 1 1 1 1 1 1 
1 1 1 1 1 1 1 1 1 
1 1 1 1 1 1 1 1 1 
1 1 1 1 1 1 1 1 1 
1 1 1 1 1 1 1 1 1 
1 1 1 1 1 1 1 1 1 
1 1 1 1 1 1 1 1 1 
1 1 1 1 1 1 1 1 1 
1 1 1 1 1 1 1 1 1 
1 1 1 1 1 1 1 1 1 
1 1 1 1 1 1 1 1 1 
1 1 1 1 1 1 1 1 1 
1 1 1 1 1 1 1 1 1 
1 1 1 1 1 1 1 1 1 
1 1 1 1 1 1 1 1 1 
1 1 1 1 1 1 1 1 1 
1 1 1 1 1 1 1 1 1 
1 1 1 1 1 1 1 1 1 
1 1 1 1 1 1 1 1 1 
1 1 1 1 1 1 1 1 1 
1 1 1 1 1 1 1 1 1 
1 1 1 1 1 1 1 1 1 
1 1 1 1 1 1 1 1 1 
1 1 1 1 1 1 1 1 1 
1 1 1 1 1 1 1 1 1 
1 1 1 1 1 1 1 1 1 
1 1 1 1 1 1 1 1 1 
1 1 1 1 1 1 1 1 1 
1 1 1 1 1 1 1 1 1 
1 1 1 1 1 1 1 1 1 
1 1 1 1 1 1 1 1 1 
1 1 1 1 1 1 1 1 1 
1 1 1 1 1 1 1 1 1 
1 1 1 1 1 1 1 1 1 
1 1 1 1 1 1 1 1 1 
1 1 1 1 1 1 1 1 1 
1 1 1 1 1 1 1 1 1 
1 1 1 1 1 1 1 1 1 
1 1 1 1 1 1 1 1 1 
1 1 1 1 1 1 1 1 1 
1 1 1 1 1 1 1 1 1 
1 1 1 1 1 1 1 1 1 
1 1 1 1 1 1 1 1 1 
1 1 1 1 1 1 1 1 1 
1 1 1 1 1 1 1 1 1 
1 1 1 1 1 1 1 1 1 
1 1 1 1 1 1 1 1 1 
1 1 1 1 1 1 1 1 1 
1 1 1 1 1 1 1 1 1 
1 1 1 1 1 1 1 1 1 
1 1 1 1 1 1 1 1 1 
1 1 1 1 1 1 1 1 1 
1 1 1 1 1 1 1 1 1 
1 1 1 1 1 1 1 1 1 
1 1 1 1 1 1 1 1 1 
1 1 1 1 1 1 1 1 1 
1 1 1 1 1 1 1 1 1 
1 1 1 1 1 1 1 1 1 
1 1 1 1 1 1 1 1 1 
1 1 1 1 1 1 1 1 1 
1 1 1 1 1 1 1 1 1 
1 1 1 1 1 1 1 1 1 
1 1 1 1 1 1 1 1 1 
1 1 1 1 1 1 1 1 1 
1 1 1 1 1 1 1 1 1 
1 1 1 1 1 1 1 1 1 
1 1 1 1 1 1 1 1 1 
1 1 1 1 1 1 1 1 1 
1 1 1 1 1 1 1 1 1 
1 1 1 1 1 1 1 1 1 
1 1 1 1 1 1 1 1 1 
1 1 1 1 1 1 1 1 1 
1 1 1 1 1 1 1 1 1 
1 1 1 1 1 1 1 1 1 
1 1 1 1 1 1 1 1 1 
1 1 1 1 1 1 1 1 1 
1 1 1 1 1 1 1 1 1 
1 1 1 1 1 1 1 1 1 
1 1 1 1 1 1 1 1 1 
1 1 1 1 1 1 1 1 1 
1 1 1 1 1 1 1 1 1 
1 1 1 1 1 1 1 1 1 
1 1 1 1 1 1 1 1 1 
1 1 1 1 1 1 1 1 1 
1 1 1 1 1 1 1 1 1 
1 1 1 1 1 1 1 1 1 
1 1 1 1 1 1 1 1 1 
1 1 1 1 1 1 1 1 1 
1 1 1 1 1 1 1 1 1 
1 1 1 1 1 1 1 1 1 
1 1 1 1 1 1 1 1 1 
1 1 1 1 1 1 1 1 1 
1 1 1 1 1 1 1 1 1 
1 1 1 1 1 1 1 1 1 
1 1 1 1 1 1 1 1 1 
1 1 1 1 1 1 1 1 1 
1 1 1 1 1 1 1 1 1 
1 1 1 1 1 1 1 1 1 
1 1 1 1 1 1 1 1 1 
1 1 1 1 1 1 1 1 1 
1 1 1 1 1 1 1 1 1 
1 1 1 1 1 1 1 1 1 
1 1 1 1 1 1 1 1 1 
1 1 1 1 1 1 1 1 1 
1 1 1 1 1 1 1 1 1 
1 1 1 1 1 1 1 1 1 
1 1 1 1 1 1 1 1 1 
1 1 1 1 1 1 1 1 1 
1 1 1 1 1 1 1 1 1 
1 1 1 1 1 1 1 1 1 
1 1 1 1 1 1 1 1 1 
1 1 1 1 1 1 1 1 1 
1 1 1 1 1 1 1 1 1 
1 1 1 1 1 1 1 1 1 
1 1 1 1 1 1 1 1 1 
1 1 1 1 1 1 1 1 1 
1 1 1 1 1 1 1 1 1 
1 1 1 1 1 1 1 1 1 
1 1 1 1 1 1 1 1 1 
1 1 1 1 1 1 1 1 1 
1 1 1 1 1 1 1 1 1 
1 1 1 1 1 1 1 1 1 
1 1 1 1 1 1 1 1 1 
1 1 1 1 1 1 1 1 1 
1 1 1 1 1 1 1 1 1 
1 1 1 1 1 1 1 1 1 
1 1 1 1 1 1 1 1 1 
1 1 1 1 1 1 1 1 1 
1 1 1 1 1 1 1 1 1 
1 1 1 1 1 1 1 1 1 
1 1 1 1 1 1 1 1 1 
1 1 1 1 1 1 1 1 1 
1 1 1 1 1 1 1 1 1 
1 1 1 1 1 1 1 1 1 
1 1 1 1 1 1 1 1 1 
1 1 1 1 1 1 1 1 1 
1 1 1 1 1 1 1 1 1 
1 1 1 1 1 1 1 1 1 
1 1 1 1 1 1 1 1 1 
1 1 1 1 1 1 1 1 1 
1 1 1 1 1 1 1 1 1 
1 1 1 1 1 1 1 1 1 
1 1 1 1 1 1 1 1 1 
1 1 1 1 1 1 1 1 1 
1 1 1 1 1 1 1 1 1 
1 1 1 1 1 1 1 1 1 
1 1 1 1 1 1 1 1 1 
1 1 1 1 1 1 1 1 1 
1 1 1 1 1 1 1 1 1 
1 1 1 1 1 1 1 1 1 
1 1 1 1 1 1 1 1 1 
1 1 1 1 1 1 1 1 1 
1 1 1 1 1 1 1 1 1 
1 1 1 1 1 1 1 1 1 
1 1 1 1 1 1 1 1 1 
1 1 1 1 1 1 1 1 1 
1 1 1 1 1 1 1 1 1 
1 1 1 1 1 1 1 1 1 
1 1 1 1 1 1 1 1 1 
1 1 1 1 1 1 1 1 1 
1 1 1 1 1 1 1 1 1 
1 1 1 1 1 1 1 1 1 
1 1 1 1 1 1 1 1 1 
1 1 1 1 1 1 1 1 1 
1 1 1 1 1 1 1 1 1 
1 1 1 1 1 1 1 1 1 
1 1 1 1 1 1 1 1 1 
1 1 1 1 1 1 1 1 1 
1 1 1 1 1 1 1 1 1 
1 1 1 1 1 1 1 1 1 
1 1 1 1 1 1 1 1 1 
1 1 1 1 1 1 1 1 1 
1 1 1 1 1 1 1 1 1 
1 1 1 1 1 1 1 1 1 
1 1 1 1 1 1 1 1 1 
1 1 1 1 1 1 1 1 1 
1 1 1 1 1 1 1 1 1 
1 1 1 1 1 1 1 1 1 
1 1 1 1 1 1 1 1 1 
1 1 1 1 1 1 1 1 1 
1 1 1 1 1 1 1 1 1 
1 1 1 1 1 1 1 1 1 
1 1 1 1 1 1 1 1 1 
1 1 1 1 1 1 1 1 1 
1 1 1 1 1 1 1 1 1 
1 1 1 1 1 1 1 1 1 
1 1 1 1 1 1 1 1 1 
1 1 1 1 1 1 1 1 1 
1 1 1 1 1 1 1 1 1 
1 1 1 1 1 1 1 1 1 
1 1 1 1 1 1 1 1 1 
1 1 1 1 1 1 1 1 1 
1 1 1 1 1 1 1 1 1 
1 1 1 1 1 1 1 1 1 
1 1 1 1 1 1 1 1 1 
1 1 1 1 1 1 1 1 1 
1 1 1 1 1 1 1 1 1 
1 1 1 1 1 1 1 1 1 
1 1 1 1 1 1 1 1 1 
1 1 1 1 1 1 1 1 1 
1 1 1 1 1 1 1 1 1 
1 1 1 1 1 1 1 1 1 
1 1 1 1 1 1 1 1 1 
1 1 1 1 1 1 1 1 1 
1 1 1 1 1 1 1 1 1 
1 1 1 1 1 1 1 1 1 
1 1 1 1 1 1 1 1 1 
1 1 1 1 1 1 1 1 1 
1 1 1 1 1 1 1 1 1 
1 1 1 1 1 1 1 1 1 
1 1 1 1 1 1 1 1 1 
1 1 1 1 1 1 1 1 1 
1 1 1 1 1 1 1 1 1 
1 1 1 1 1 1 1 1 1 
1 1 1 1 1 1 1 1 1 
1 1 1 1 1 1 1 1 1 
1 1 1 1 1 1 1 1 1 
1 1 1 1 1 1 1 1 1 
1 1 1 1 1 1 1 1 1 
1 1 1 1 1 1 1 1 1 
1 1 1 1 1 1 1 1 1 
1 1 1 1 1 1 1 1 1 
1 1 1 1 1 1 1 1 1 
1 1 1 1 1 1 1 1 1 
1 1 1 1 1 1 1 1 1 
1 1 1 1 1 1 1 1 1 
1 1 1 1 1 1 1 1 1 
1 1 1 1 1 1 1 1 1 
1 1 1 1 1 1 1 1 1 
1 1 1 1 1 1 1 1 1 
1 1 1 1 1 1 1 1 1 
1 1 1 1 1 1 1 1 1 
1 1 1 1 1 1 1 1 1 
1 1 1 1 1 1 1 1 1 
1 1 1 1 1 1 1 1 1 
1 1 1 1 1 1 1 1 1 
1 1 1 1 1 1 1 1 1 
1 1 1 1 1 1 1 1 1 
1 1 1 1 1 1 1 1 1 
1 1 1 1 1 1 1 1 1 
1 1 1 1 1 1 1 1 1 
1 1 1 1 1 1 1 1 1 
1 1 1 1 1 1 1 1 1 
1 1 1 1 1 1 1 1 1 
1 1 1 1 1 1 1 1 1 
1 1 1 1 1 1 1 1 1 
1 1 1 1 1 1 1 1 1 
1 1 1 1 1 1 1 1 1 
1 1 1 1 1 1 1 1 1 
1 1 1 1 1 1 1 1 1 
1 1 1 1 1 1 1 1 1 
1 1 1 1 1 1 1 1 1 
1 1 1 1 1 1 1 1 1 
1 1 1 1 1 1 1 1 1 
1 1 1 1 1 1 1 1 1 
1 1 1 1 1 1 1 1 1 
1 1 1 1 1 1 1 1 1 
1 1 1 1 1 1 1 1 1 
1 1 1 1 1 1 1 1 1 
1 1 1 1 1 1 1 1 1 
1 1 1 1 1 1 1 1 1 
1 1 1 1 1 1 1 1 1 
1 1 1 1 1 1 1 1 1 
1 1 1 1 1 1 1 1 1 
1 1 1 1 1 1 1 1 1 
1 1 1 1 1 1 1 1 1 
1 1 1 1 1 1 1 1 1 
1 1 1 1 1 1 1 1 1 
1 1 1 1 1 1 1 1 1 
1 1 1 1 1 1 1 1 1 
1 1 1 1 1 1 1 1 1 
1 1 1 1 1 1 1 1 1 
1 1 1 1 1 1 1 1 1 
1 1 1 1 1 1 1 1 1 
1 1 1 1 1 1 1 1 1 
1 1 1 1 1 1 1 1 1 
1 1 1 1 1 1 1 1 1 
1 1 1 1 1 1 1 1 1 
1 1 1 1 1 1 1 1 1 
1 1 1 1 1 1 1 1 1 
1 1 1 1 1 1 1 1 1 
1 1 1 1 1 1 1 1 1 
1 1 1 1 1 1 1 1 1 
1 1 1 1 1 1 1 1 1 
1 1 1 1 1 1 1 1 1 
1 1 1 1 1 1 1 1 1 
1 1 1 1 1 1 1 1 1 
1 1 1 1 1 1 1 1 1 
1 1 1 1 1 1 1 1 1 
1 1 1 1 1 1 1 1 1 
1 1 1 1 1 1 1 1 1 
1 1 1 1 1 1 1 1 1 
1 1 1 1 1 1 1 1 1 
1 1 1 1 1 1 1 1 1 
1 1 1 1 1 1 1 1 1 
1 1 1 1 1 1 1 1 1 
1 1 1 1 1 1 1 1 1 
1 1 1 1 1 1 1 1 1 
1 1 1 1 1 1 1 1 1 
1 1 1 1 1 1 1 1 1 
1 1 1 1 1 1 1 1 1 
1 1 1 1 1 1 1 1 1 
1 1 1 1 1 1 1 1 1 
1 1 1 1 1 1 1 1 1 
1 1 1 1 1 1 1 1 1 
1 1 1 1 1 1 1 1 1 
1 1 1 1 1 1 1 1 1 
1 1 1 1 1 1 1 1 1 
1 1 1 1 1 1 1 1 1 
1 1 1 1 1 1 1 1 1 
1 1 1 1 1 1 1 1 1 
1 1 1 1 1 1 1 1 1 
1 1 1 1 1 1 1 1 1 
1 1 1 1 1 1 1 1 1 
1 1 1 1 1 1 1 1 1 
1 1 1 1 1 1 1 1 1 
1 1 1 1 1 1 1 1 1 
1 1 1 1 1 1 1 1 1 
1 1 1 1 1 1 1 1 1 
1 1 1 1 1 1 1 1 1 
1 1 1 1 1 1 1 1 1 
1 1 1 1 1 1 1 1 1 
1 1 1 1 1 1 1 1 1 
1 1 1 1 1 1 1 1 1 
1 1 1 1 1 1 1 1 1 
1 1 1 1 1 1 1 1 1 
1 1 1 1 1 1 1 1 1 
1 1 1 1 1 1 1 1 1 
1 1 1 1 1 1 1 1 1 
1 1 1 1 1 1 1 1 1 
1 1 1 1 1 1 1 1 1 
1 1 1 1 1 1 1 1 1 
1 1 1 1 1 1 1 1 1 
1 1 1 1 1 1 1 1 1 
1 1 1 1 1 1 1 1 1 
1 1 1 1 1 1 1 1 1 
1 1 1 1 1 1 1 1 1 
1 1 1 1 1 1 1 1 1 
1 1 1 1 1 1 1 1 1 
1 1 1 1 1 1 1 1 1 
1 1 1 1 1 1 1 1 1 
1 1 1 1 1 1 1 1 1 
1 1 1 1 1 1 1 1 1 
1 1 1 1 1 1 1 1 1 
1 1 1 1 1 1 1 1 1 
1 1 1 1 1 1 1 1 1 
1 1 1 1 1 1 1 1 1 
1 1 1 1 1 1 1 1 1 
1 1 1 1 1 1 1 1 1 
1 1 1 1 1 1 1 1 1 
1 1 1 1 1 1 1 1 1 
1 1 1 1 1 1 1 1 1 
1 1 1 1 1 1 1 1 1 
1 1 1 1 1 1 1 1 1 
1 1 1 1 1 1 1 1 1 
1 1 1 1 1 1 1 1 1 
1 1 1 1 1 1 1 1 1 
1 1 1 1 1 1 1 1 1 
1 1 1 1 1 1 1 1 1 
1 1 1 1 1 1 1 1 1 
1 1 1 1 1 1 1 1 1 
1 1 1 1 1 1 1 1 1 
1 1 1 1 1 1 1 1 1 
1 1 1 1 1 1 1 1 1 
1 1 1 1 1 1 1 1 1 
1 1 1 1 1 1 1 1 1 
1 1 1 1 1 1 1 1 1 
1 1 1 1 1 1 1 1 1 
1 1 1 1 1 1 1 1 1 
1 1 1 1 1 1 1 1 1 
1 1 1 1 1 1 1 1 1 
1 1 1 1 1 1 1 1 1 
1 1 1 1 1 1 1 1 1 
1 1 1 1 1 1 1 1 1 
1 1 1 1 1 1 1 1 1 
1 1 1 1 1 1 1 1 1 
1 1 1 1 1 1 1 1 1 
1 1 1 1 1 1 1 1 1 
1 1 1 1 1 1 1 1 1 
1 1 1 1 1 1 1 1 1 
1 1 1 1 1 1 1 1 1 
1 1 1 1 1 1 1 1 1 
1 1 1 1 1 1 1 1 1 
1 1 1 1 1 1 1 1 1 
1 1 1 1 1 1 1 1 1 
1 1 1 1 1 1 1 1 1 
1 1 1 1 1 1 1 1 1 
1 1 1 1 1 1 1 1 1 
1 1 1 1 1 1 1 1 1 
1 1 1 1 1 1 1 1 1 
1 1 1 1 1 1 1 1 1 
1 1 1 1 1 1 1 1 1 
1 1 1 1 1 1 1 1 1 
1 1 1 1 1 1 1 1 1 
1 1 1 1 1 1 1 1 1 
1 1 1 1 1 1 1 1 1 
1 1 1 1 1 1 1 1 1 
1 1 1 1 1 1 1 1 1 
1 1 1 1 1 1 1 1 1 
1 1 1 1 1 1 1 1 1 
1 1 1 1 1 1 1 1 1 
1 1 1 1 1 1 1 1 1 
1 1 1 1 1 1 1 1 1 
1 1 1 1 1 1 1 1 1 
1 1 1 1 1 1 1 1 1 
1 1 1 1 1 1 1 1 1 
1 1 1 1 1 1 1 1 1 
1 1 1 1 1 1 1 1 1 
1 1 1 1 1 1 1 1 1 
1 1 1 1 1 1 1 1 1 
1 1 1 1 1 1 1 1 1 
1 1 1 1 1 1 1 1 1 
1 1 1 1 1 1 1 1 1 
1 1 1 1 1 1 1 1 1 
1 1 1 1 1 1 1 1 1 
1 1 1 1 1 1 1 1 1 
1 1 1 1 1 1 1 1 1 
1 1 1 1 1 1 1 1 1 
1 1 1 1 1 1 1 1 1 
1 1 1 1 1 1 1 1 1 
1 1 1 1 1 1 1 1 1 
1 1 1 1 1 1 1 1 1 
1 1 1 1 1 1 1 1 1 
1 1 1 1 1 1 1 1 1 
1 1 1 1 1 1 1 1 1 
1 1 1 1 1 1 1 1 1 
1 1 1 1 1 1 1 1 1 
1 1 1 1 1 1 1 1 1 
1 1 1 1 1 1 1 1 1 
1 1 1 1 1 1 1 1 1 
1 1 1 1 1 1 1 1 1 
1 1 1 1 1 1 1 1 1 
1 1 1 1 1 1 1 1 1 
1 1 1 1 1 1 1 1 1 
1 1 1 1 1 1 1 1 1 
1 1 1 1 1 1 1 1 1 
1 1 1 1 1 1 1 1 1 
1 1 1 1 1 1 1 1 1 
1 1 1 1 1 1 1 1 1 
1 1 1 1 1 1 1 1 1 
1 1 1 1 1 1 1 1 1 
1 1 1 1 1 1 1 1 1 
1 1 1 1 1 1 1 1 1 
1 1 1 1 1 1 1 1 1 
1 1 1 1 1 1 1 1 1 
1 1 1 1 1 1 1 1 1 
1 1 1 1 1 1 1 1 1 
1 1 1 1 1 1 1 1 1 
1 1 1 1 1 1 1 1 1 
1 1 1 1 1 1 1 1 1 
1 1 1 1 1 1 1 1 1 
1 1 1 1 1 1 1 1 1 
1 1 1 1 1 1 1 1 1 
1 1 1 1 1 1 1 1 1 
1 1 1 1 1 1 1 1 1 
1 1 1 1 1 1 1 1 1 
1 1 1 1 1 1 1 1 1 
1 1 1 1 1 1 1 1 1 
1 1 1 1 1 1 1 1 1 
1 1 1 1 1 1 1 1 1 
1 1 1 1 1 1 1 1 1 
1 1 1 1 1 1 1 1 1 
1 1 1 1 1 1 1 1 1 
1 1 1 1 1 1 1 1 1 
1 1 1 1 1 1 1 1 1 
1 1 1 1 1 1 1 1 1 
1 1 1 1 1 1 1 1 1 
1 1 1 1 1 1 1 1 1 
1 1 1 1 1 1 1 1 1 
1 1 1 1 1 1 1 1 1 
1 1 1 1 1 1 1 1 1 
1 1 1 1 1 1 1 1 1 
1 1 1 1 1 1 1 1 1 
1 1 1 1 1 1 1 1 1 
1 1 1 1 1 1 1 1 1 
1 1 1 1 1 1 1 1 1 
1 1 1 1 1 1 1 1 1 
1 1 1 1 1 1 1 1 1 
1 1 1 1 1 1 1 1 1 
1 1 1 1 1 1 1 1 1 
1 1 1 1 1 1 1 1 1 
1 1 1 1 1 1 1 1 1 
1 1 1 1 1 1 1 1 1 
1 1 1 1 1 1 1 1 1 
1 1 1 1 1 1 1 1 1 
1 1 1 1 1 1 1 1 1 
1 1 1 1 1 1 1 1 1 
1 1 1 1 1 1 1 1 1 
1 1 1 1 1 1 1 1 1 
1 1 1 1 1 1 1 1 1 
1 1 1 1 1 1 1 1 1 
1 1 1 1 1 1 1 1 1 
1 1 1 1 1 1 1 1 1 
1 1 1 1 1 1 1 1 1 
1 1 1 1 1 1 1 1 1 
1 1 1 1 1 1 1 1 1 
1 1 1 1 1 1 1 1 1 
1 1 1 1 1 1 1 1 1 
1 1 1 1 1 1 1 1 1 
1 1 1 1 1 1 1 1 1 
1 1 1 1 1 1 1 1 1 
1 1 1 1 1 1 1 1 1 
1 1 1 1 1 1 1 1 1 
1 1 1 1 1 1 1 1 1 
1 1 1 1 1 1 1 1 1 
1 1 1 1 1 1 1 1 1 
1 1 1 1 1 1 1 1 1 
1 1 1 1 1 1 1 1 1 
1 1 1 1 1 1 1 1 1 
1 1 1 1 1 1 1 1 1 
1 1 1 1 1 1 1 1 1 
1 1 1 1 1 1 1 1 1 
1 1 1 1 1 1 1 1 1 
1 1 1 1 1 1 1 1 1 
1 1 1 1 1 1 1 1 1 
1 1 1 1 1 1 1 1 1 
1 1 1 1 1 1 1 1 1 
1 1 1 1 1 1 1 1 1 
1 1 1 1 1 1 1 1 1 
1 1 1 1 1 1 1 1 1 
1 1 1 1 1 1 1 1 1 
1 1 1 1 1 1 1 1 1 
1 1 1 1 1 1 1 1 1 
1 1 1 1 1 1 1 1 1 
1 1 1 1 1 1 1 1 1 
1 1 1 1 1 1 1 1 1 
1 1 1 1 1 1 1 1 1 
1 1 1 1 1 1 1 1 1 
1 1 1 1 1 1 1 1 1 
1 1 1 1 1 1 1 1 1 
1 1 1 1 1 1 1 1 1 
1 1 1 1 1 1 1 1 1 
1 1 1 1 1 1 1 1 1 
1 1 1 1 1 1 1 1 1 
1 1 1 1 1 1 1 1 1 
1 1 1 1 1 1 1 1 1 
1 1 1 1 1 1 1 1 1 
1 1 1 1 1 1 1 1 1 
1 1 1 1 1 1 1 1 1 
1 1 1 1 1 1 1 1 1 
1 1 1 1 1 1 1 1 1 
1 1 1 1 1 1 1 1 1 
1 1 1 1 1 1 1 1 1 
1 1 1 1 1 1 1 1 1 
1 1 1 1 1 1 1 1 1 
1 1 1 1 1 1 1 1 1 
1 1 1 1 1 1 1 1 1 
1 1 1 1 1 1 1 1 1 
1 1 1 1 1 1 1 1 1 
1 1 1 1 1 1 1 1 1 
1 1 1 1 1 1 1 1 1 
1 1 1 1 1 1 1 1 1 
1 1 1 1 1 1 1 1 1 
1 1 1 1 1 1 1 1 1 
1 1 1 1 1 1 1 1 1 
1 1 1 1 1 1 1 1 1 
1 1 1 1 1 1 1 1 1 
1 1 1 1 1 1 1 1 1 
1 1 1 1 1 1 1 1 1 
1 1 1 1 1 1 1 1 1 
1 1 1 1 1 1 1 1 1 
1 1 1 1 1 1 1 1 1 
1 1 1 1 1 1 1 1 1 
1 1 1 1 1 1 1 1 1 
1 1 1 1 1 1 1 1 1 
1 1 1 1 1 1 1 1 1 
1 1 1 1 1 1 1 1 1 
1 1 1 1 1 1 1 1 1 
1 1 1 1 1 1 1 1 1 
1 1 1 1 1 1 1 1 1 
1 1 1 1 1 1 1 1 1 
1 1 1 1 1 1 1 1 1 
1 1 1 1 1 1 1 1 1 
1 1 1 1 1 1 1 1 1 
1 1 1 1 1 1 1 1 1 
1 1 1 1 1 1 1 1 1 
1 1 1 1 1 1 1 1 1 
1 1 1 1 1 1 1 1 1 
1 1 1 1 1 1 1 1 1 
1 1 1 1 1 1 1 1 1 
1 1 1 1 1 1 1 1 1 
1 1 1 1 1 1 1 1 1 
1 1 1 1 1 1 1 1 1 
1 1 1 1 1 1 1 1 1 
1 1 1 1 1 1 1 1 1 
1 1 1 1 1 1 1 1 1 
1 1 1 1 1 1 1 1 1 
1 1 1 1 1 1 1 1 1 
1 1 1 1 1 1 1 1 1 
1 1 1 1 1 1 1 1 1 
1 1 1 1 1 1 1 1 1 
1 1 1 1 1 1 1 1 1 
1 1 1 1 1 1 1 1 1 
1 1 1 1 1 1 1 1 1 
1 1 1 1 1 1 1 1 1 
1 1 1 1 1 1 1 1 1 
1 1 1 1 1 1 1 1 1 
1 1 1 1 1 1 1 1 1 
1 1 1 1 1 1 1 1 1 
1 1 1 1 1 1 1 1 1 
1 1 1 1 1 1 1 1 1 
1 1 1 1 1 1 1 1 1 
1 1 1 1 1 1 1 1 1 
1 1 1 1 1 1 1 1 1 
1 1 1 1 1 1 1 1 1 
1 1 1 1 1 1 1 1 1 
1 1 1 1 1 1 1 1 1 
1 1 1 1 1 1 1 1 1 
1 1 1 1 1 1 1 1 1 
1 1 1 1 1 1 1 1 1 
1 1 1 1 1 1 1 1 1 
1 1 1 1 1 1 1 1 1 
1 1 1 1 1 1 1 1 1 
1 1 1 1 1 1 1 1 1 
1 1 1 1 1 1 1 1 1 
1 1 1 1 1 1 1 1 1 
1 1 1 1 1 1 1 1 1 
1 1 1 1 1 1 1 1 1 
1 1 1 1 1 1 1 1 1 
1 1 1 1 1 1 1 1 1 
1 1 1 1 1 1 1 1 1 
1 1 1 1 1 1 1 1 1 
1 1 1 1 1 1 1 1 1 
1 1 1 1 1 1 1 1 1 
1 1 1 1 1 1 1 1 1 
1 1 1 1 1 1 1 1 1 
1 1 1 1 1 1 1 1 1 
1 1 1 1 1 1 1 1 1 
1 1 1 1 1 1 1 1 1 
1 1 1 1 1 1 1 1 1 
1 1 1 1 1 1 1 1 1 
1 1 1 1 1 1 1 1 1 
1 1 1 1 1 1 1 1 1 
1 1 1 1 1 1 1 1 1 
1 1 1 1 1 1 1 1 1 
1 1 1 1 1 1 1 1 1 
1 1 1 1 1 1 1 1 1 
1 1 1 1 1 1 1 1 1 
1 1 1 1 1 1 1 1 1 
1 1 1 1 1 1 1 1 1 
1 1 1 1 1 1 1 1 1 
1 1 1 1 1 1 1 1 1 
1 1 1 1 1 1 1 1 1 
1 1 1 1 1 1 1 1 1 
1 1 1 1 1 1 1 1 1 
1 1 1 1 1 1 1 1 1 
1 1 1 1 1 1 1 1 1 
1 1 1 1 1 1 1 1 1 
1 1 1 1 1 1 1 1 1 
1 1 1 1 1 1 1 1 1 
1 1 1 1 1 1 1 1 1 
1 1 1 1 1 1 1 1 1 
1 1 1 1 1 1 1 1 1 
1 1 1 1 1 1 1 1 1 
1 1 1 1 1 1 1 1 1 
1 1 1 1 1 1 1 1 1 
1 1 1 1 1 1 1 1 1 
1 1 1 1 1 1 1 1 1 
1 1 1 1 1 1 1 1 1 
1 1 1 1 1 1 1 1 1 
1 1 1 1 1 1 1 1 1 
1 1 1 1 1 1 1 1 1 
1 1 1 1 1 1 1 1 1 
1 1 1 1 1 1 1 1 1 
1 1 1 1 1 1 1 1 1 
1 1 1 1 1 1 1 1 1 
1 1 1 1 1 1 1 1 1 
1 1 1 1 1 1 1 1 1 
1 1 1 1 1 1 1 1 1 
1 1 1 1 1 1 1 1 1 
1 1 1 1 1 1 1 1 1 
1 1 1 1 1 1 1 1 1 
1 1 1 1 1 1 1 1 1 
1 1 1 1 1 1 1 1 1 
1 1 1 1 1 1 1 1 1 
1 1 1 1 1 1 1 1 1 
1 1 1 1 1 1 1 1 1 
1 1 1 1 1 1 1 1 1 
1 1 1 1 1 1 1 1 1 
1 1 1 1 1 1 1 1 1 
1 1 1 1 1 1 1 1 1 
1 1 1 1 1 1 1 1 1 
1 1 1 1 1 1 1 1 1 
1 1 1 1 1 1 1 1 1 
1 1 1 1 1 1 1 1 1 
1 1 1 1 1 1 1 1 1 
1 1 1 1 1 1 1 1 1 
1 1 1 1 1 1 1 1 1 
1 1 1 1 1 1 1 1 1 
1 1 1 1 1 1 1 1 1 
1 1 1 1 1 1 1 1 1 
1 1 1 1 1 1 1 1 1 
1 1 1 1 1 1 1 1 1 
1 1 1 1 1 1 1 1 1 
1 1 1 1 1 1 1 1 1 
1 1 1 1 1 1 1 1 1 
1 1 1 1 1 1 1 1 1 
1 1 1 1 1 1 1 1 1 
1 1 1 1 1 1 1 1 1 
1 1 1 1 1 1 1 1 1 
1 1 1 1 1 1 1 1 1 
1 1 1 1 1 1 1 1 1 
1 1 1 1 1 1 1 1 1 
1 1 1 1 1 1 1 1 1 
1 1 1 1 1 1 1 1 1 
1 1 1 1 1 1 1 1 1 
1 1 1 1 1 1 1 1 1 
1 1 1 1 1 1 1 1 1 
1 1 1 1 1 1 1 1 1 
1 1 1 1 1 1 1 1 1 
1 1 1 1 1 1 1 1 1 
1 1 1 1 1 1 1 1 1 
1 1 1 1 1 1 1 1 1 
1 1 1 1 1 1 1 1 1 
1 1 1 1 1 1 1 1 1 
1 1 1 1 1 1 1 1 1 
1 1 1 1 1 1 1 1 1 
1 1 1 1 1 1 1 1 1 
1 1 1 1 1 1 1 1 1 
1 1 1 1 1 1 1 1 1 
1 1 1 1 1 1 1 1 1 
1 1 1 1 1 1 1 1 1 
1 1 1 1 1 1 1 1 1 
1 1 1 1 1 1 1 1 1 
1 1 1 1 1 1 1 1 1 
1 1 1 1 1 1 1 1 1 
1 1 1 1 1 1 1 1 1 
1 1 1 1 1 1 1 1 1 
1 1 1 1 1 1 1 1 1 
1 1 1 1 1 1 1 1 1 
1 1 1 1 1 1 1 1 1 
1 1 1 1 1 1 1 1 1 
1 1 1 1 1 1 1 1 1 
1 1 1 1 1 1 1 1 1 
1 1 1 1 1 1 1 1 1 
1 1 1 1 1 1 1 1 1 
1 1 1 1 1 1 1 1 1 
1 1 1 1 1 1 1 1 1 
1 1 1 1 1 1 1 1 1 
1 1 1 1 1 1 1 1 1 
1 1 1 1 1 1 1 1 1 
1 1 1 1 1 1 1 1 1 
1 1 1 1 1 1 1 1 1 
1 1 1 1 1 1 1 1 1 
1 1 1 1 1 1 1 1 1 
1 1 1 1 1 1 1 1 1 
1 1 1 1 1 1 1 1 1 
1 1 1 1 1 1 1 1 1 
1 1 1 1 1 1 1 1 1 
1 1 1 1 1 1 1 1 1 
1 1 1 1 1 1 1 1 1 
1 1 1 1 1 1 1 1 1 
1 1 1 1 1 1 1 1 1 
1 1 1 1 1 1 1 1 1 
1 1 1 1 1 1 1 1 1 
1 1 1 1 1 1 1 1 1 
1 1 1 1 1 1 1 1 1 
1 1 1 1 1 1 1 1 1 
1 1 1 1 1 1 1 1 1 
1 1 1 1 1 1 1 1 1 
1 1 1 1 1 1 1 1 1 
1 1 1 1 1 1 1 1 1 
1 1 1 1 1 1 1 1 1 
1 1 1 1 1 1 1 1 1 
1 1 1 1 1 1 1 1 1 
1 1 1 1 1 1 1 1 1 
1 1 1 1 1 1 1 1 1 
1 1 1 1 1 1 1 1 1 
1 1 1 1 1 1 1 1 1 
1 1 1 1 1 1 1 1 1 
1 1 1 1 1 1 1 1 1 
1 1 1 1 1 1 1 1 1 
1 1 1 1 1 1 1 1 1 
1 1 1 1 1 1 1 1 1 
1 1 1 1 1 1 1 1 1 
1 1 1 1 1 1 1 1 1 
1 1 1 1 1 1 1 1 1 
1 1 1 1 1 1 1 1 1 
1 1 1 1 1 1 1 1 1 
1 1 1 1 1 1 1 1 1 
1 1 1 1 1 1 1 1 1 
1 1 1 1 1 1 1 1 1 
1 1 1 1 1 1 1 1 1 
1 1 1 1 1 1 1 1 1 
1 1 1 1 1 1 1 1 1 
1 1 1 1 1 1 1 1 1 
1 1 1 1 1 1 1 1 1 
1 1 1 1 1 1 1 1 1 
1 1 1 1 1 1 1 1 1 
1 1 1 1 1 1 1 1 1 
1 1 1 1 1 1 1 1 1 
1 1 1 1 1 1 1 1 1 
1 1 1 1 1 1 1 1 1 
1 1 1 1 1 1 1 1 1 
1 1 1 1 1 1 1 1 1 
1 1 1 1 1 1 1 1 1 
1 1 1 1 1 1 1 1 1 
1 1 1 1 1 1 1 1 1 
1 1 1 1 1 1 1 1 1 
1 1 1 1 1 1 1 1 1 
1 1 1 1 1 1 1 1 1 
1 1 1 1 1 1 1 1 1 
1 1 1 1 1 1 1 1 1 
1 1 1 1 1 1 1 1 1 
1 1 1 1 1 1 1 1 1 
1 1 1 1 1 1 1 1 1 
1 1 1 1 1 1 1 1 1 
1 1 1 1 1 1 1 1 1 
1 1 1 1 1 1 1 1 1 
1 1 1 1 1 1 1 1 1 
1 1 1 1 1 1 1 1 1 
1 1 1 1 1 1 1 1 1 
1 1 1 1 1 1 1 1 1 
1 1 1 1 1 1 1 1 1 
1 1 1 1 1 1 1 1 1 
1 1 1 1 1 1 1 1 1 
1 1 1 1 1 1 1 1 1 
1 1 1 1 1 1 1 1 1 
1 1 1 1 1 1 1 1 1 
1 1 1 1 1 1 1 1 1 
1 1 1 1 1 1 1 1 1 
1 1 1 1 1 1 1 1 1 
1 1 1 1 1 1 1 1 1 
1 1 1 1 1 1 1 1 1 
1 1 1 1 1 1 1 1 1 
1 1 1 1 1 1 1 1 1 
1 1 1 1 1 1 1 1 1 
1 1 1 1 1 1 1 1 1 
1 1 1 1 1 1 1 1 1 
1 1 1 1 1 1 1 1 1 
1 1 1 1 1 1 1 1 1 
1 1 1 1 1 1 1 1 1 
1 1 1 1 1 1 1 1 1 
1 1 1 1 1 1 1 1 1 
1 1 1 1 1 1 1 1 1 
1 1 1 1 1 1 1 1 1 
1 1 1 1 1 1 1 1 1 
1 1 1 1 1 1 1 1 1 
1 1 1 1 1 1 1 1 1 
1 1 1 1 1 1 1 1 1 
1 1 1 1 1 1 1 1 1 
1 1 1 1 1 1 1 1 1 
1 1 1 1 1 1 1 1 1 
1 1 1 1 1 1 1 1 1 
1 1 1 1 1 1 1 1 1 
1 1 1 1 1 1 1 1 1 
1 1 1 1 1 1 1 1 1 
1 1 1 1 1 1 1 1 1 
1 1 1 1 1 1 1 1 1 
1 1 1 1 1 1 1 1 1 
1 1 1 1 1 1 1 1 1 
1 1 1 1 1 1 1 1 1 
1 1 1 1 1 1 1 1 1 
1 1 1 1 1 1 1 1 1 
1 1 1 1 1 1 1 1 1 
1 1 1 1 1 1 1 1 1 
1 1 1 1 1 1 1 1 1 
1 1 1 1 1 1 1 1 1 
1 1 1 1 1 1 1 1 1 
1 1 1 1 1 1 1 1 1 
1 1 1 1 1 1 1 1 1 
1 1 1 1 1 1 1 1 1 
1 1 1 1 1 1 1 1 1 
1 1 1 1 1 1 1 1 1 
1 1 1 1 1 1 1 1 1 
1 1 1 1 1 1 1 1 1 
1 1 1 1 1 1 1 1 1 
1 1 1 1 1 1 1 1 1 
1 1 1 1 1 1 1 1 1 
1 1 1 1 1 1 1 1 1 
1 1 1 1 1 1 1 1 1 
1 1 1 1 1 1 1 1 1 
1 1 1 1 1 1 1 1 1 
1 1 1 1 1 1 1 1 1 
1 1 1 1 1 1 1 1 1 
1 1 1 1 1 1 1 1 1 
1 1 1 1 1 1 1 1 1 
1 1 1 1 1 1 1 1 1 
1 1 1 1 1 1 1 1 1 
1 1 1 1 1 1 1 1 1 
1 1 1 1 1 1 1 1 1 
1 1 1 1 1 1 1 1 1 
1 1 1 1 1 1 1 1 1 
1 1 1 1 1 1 1 1 1 
1 1 1 1 1 1 1 1 1 
1 1 1 1 1 1 1 1 1 
1 1 1 1 1 1 1 1 1 
1 
NORMALS normals float
0.0755698 -0.532052 0.843333 0.073836 -0.470763 0.879165 0.0284167 -0.535368 0.844141 
0.118975 -0.551917 0.825368 0.0797888 -0.560022 0.824627 -0.386936 0.515867 0.764305 
-0.386721 0.529752 0.754857 -0.410704 0.510086 0.755734 0.407079 0.557319 0.723659 
0.407799 0.563399 0.718527 0.433571 0.551329 0.712778 -0.621205 0.198019 0.758217 
-0.82388 0.0373252 0.565533 0.230316 0.47402 0.849858 0.953842 0.138761 0.266327 
-0.703651 -0.524448 0.479406 -0.742544 -0.58826 0.320279 0.703362 -0.707368 -0.0700857 
-0.607504 -0.717867 0.340009 0.488195 -0.871715 0.0421791 -0.483587 0.874773 -0.0302626 
-0.943367 0.32138 -0.0823 0.382077 0.924002 -0.0154201 0.975509 0.209346 -0.0674996 
-0.939878 -0.227394 -0.254798 0.926678 -0.232875 -0.295022 -0.70014 -0.627049 -0.341488 
0.625206 -0.653198 -0.427143 -0.480257 -0.812387 -0.330728 0.592156 -0.690436 -0.415511 
-0.483012 0.323572 -0.813634 0.482788 0.322934 -0.814021 -0.547131 -0.183847 -0.816607 
0.503269 -0.290439 -0.813859 -0.498126 -0.636126 -0.589248 0.584782 -0.662672 -0.467863 
-0.438715 0.405566 0.801901 -0.435901 0.420329 0.79581 -0.449738 0.400285 0.798441 
-0.0540834 0.457189 0.887724 -0.0534167 0.589658 0.805885 0.152812 0.482872 0.862255 
0.141382 0.536189 0.832173 0.0799871 0.511001 0.855851 0.16829 0.50378 0.84728 
0.167746 0.507188 0.845353 0.121609 0.508839 0.852229 0.180865 0.503407 0.844908 
-0 0.606622 0.79499 -0 0.725431 0.688295 -0.36813 0.603692 0.707133 
0.371106 0.595085 0.712849 -0.533075 0.0323437 0.845449 -0.632957 0.0143274 0.774054 
-0.109413 0.0900206 0.989912 0.0645766 0.158719 0.98521 0.0724159 0.505034 0.860056 
0.0310013 0.209902 0.977231 0.17108 0.198914 0.964969 0.631258 0.21819 0.744249 
0.6331 0.199502 0.74792 0.646377 0.19809 0.736856 -0.534955 -0.0461134 0.843621 
-0.540552 0.403679 0.738137 -0.644632 -0.0326528 0.763795 0.0110088 -0.128072 0.991704 
0.565797 0.357457 0.743033 0.580696 -0.080117 0.810169 0.671176 -0.0848383 0.736427 
-0.550852 -0.269619 0.789853 -0.585171 -0.270481 0.764471 -0.176483 -0.132148 0.975393 
0.0352136 -0.129899 0.990902 0.0309291 -0.220236 0.974956 0.171574 -0.233116 0.957193 
0.649335 -0.255375 0.716343 0.663756 -0.254672 0.703256 -0.457062 -0.303508 0.836049 
0.0324675 -0.54311 0.839034 0.558724 -0.261804 0.786947 -0.576384 -0.313071 0.75483 
-0.44121 -0.424773 0.790507 -0.255018 -0.357904 0.89826 0.154109 -0.414193 0.897048 
0.159054 -0.536211 0.828963 0.148548 -0.531379 0.834009 0.223129 -0.614155 0.756985 
0.653871 -0.279259 0.703184 -0.259731 -0.54061 0.800176 0.183403 -0.514763 0.837486 
-0.295032 0.762085 0.576353 -0.291918 0.798464 0.526535 -0.332105 0.735303 0.590792 